                         Program Version 6.1.0  -  RELEASE   -
|  1> % MaxCore 10000
|  2> ! PAL8
|  3> ! REVDSD-PBEP86-D4/2021 def2-TZVPP def2-TZVPP/c
|  4> ! OPT
|  5> * xyzfile 0 2 guess.xyz
|  6>
|  7>                          ****END OF INPUT****
 Total Charge           Charge          ....    0
 Multiplicity           Mult            ....    2
 Number of Electrons    NEL             ....   47
MP2 TOTAL ENERGY:     -270.657624197 Eh
Dispersion correction           -0.007311547
FINAL SINGLE POINT ENERGY      -270.664935743538
MP2 TOTAL ENERGY:     -270.657979900 Eh
Dispersion correction           -0.007285833
FINAL SINGLE POINT ENERGY      -270.665265733062
MP2 TOTAL ENERGY:     -270.658014649 Eh
Dispersion correction           -0.007281027
FINAL SINGLE POINT ENERGY      -270.665295675945
FINAL SINGLE POINT ENERGY      -270.665307247363
FINAL SINGLE POINT ENERGY      -270.665323146971
FINAL SINGLE POINT ENERGY      -270.665336436429
FINAL SINGLE POINT ENERGY      -270.665371403644
FINAL SINGLE POINT ENERGY      -270.665393776377
FINAL SINGLE POINT ENERGY      -270.665423025877
FINAL SINGLE POINT ENERGY      -270.665440164682
FINAL SINGLE POINT ENERGY      -270.665468065804
FINAL SINGLE POINT ENERGY      -270.665480296335
FINAL SINGLE POINT ENERGY      -270.665499991120
FINAL SINGLE POINT ENERGY      -270.665516846426
FINAL SINGLE POINT ENERGY      -270.665531837030
FINAL SINGLE POINT ENERGY      -270.665542839396
FINAL SINGLE POINT ENERGY      -270.665540974287
MP2 TOTAL ENERGY:     -270.658159489 Eh
Dispersion correction           -0.007387566
FINAL SINGLE POINT ENERGY      -270.665547055571
MP2 TOTAL ENERGY:     -270.658163560 Eh
Dispersion correction           -0.007383031
FINAL SINGLE POINT ENERGY      -270.665546591066
                    ***********************HURRAY********************

CARTESIAN COORDINATES (ANGSTROEM)
---------------------------------
  C      1.899655    1.393839   -0.007247
  C      0.671341    2.263264    0.342939
  C     -0.560223    1.391982    0.009170
  C      0.001599   -0.009031    0.028433
  C      1.339571   -0.007657    0.017907
  H      2.290684    1.620107   -1.005488
  H      2.723307    1.535876    0.695770
  H      0.667012    3.217928   -0.182843
  H      0.680699    2.474468    1.413840
  H     -1.377671    1.533865    0.719676
  H     -0.963277    1.616417   -0.984775
  H     -0.616463   -0.898346   -0.002989
  H      1.958077   -0.896399   -0.024444
  O      0.863479    0.204178    3.299588
  H      0.781012    0.016599    2.345621

 Multiplicity           Mult            ....    2
 Number of Electrons    NEL             ....   47
 Basis Dimension        Dim             ....  312

ORBITAL ENERGIES
----------------
                 SPIN UP ORBITALS
  NO   OCC          E(Eh)            E(eV)
   0   1.0000     -20.056353      -545.7611
   1   1.0000     -10.825731      -294.5831
   2   1.0000     -10.824320      -294.5447
   3   1.0000     -10.819406      -294.4110
   4   1.0000     -10.818735      -294.3927
   5   1.0000     -10.813657      -294.2546
   6   1.0000      -1.227538       -33.4030
   7   1.0000      -1.035336       -28.1729
   8   1.0000      -0.880108       -23.9490
   9   1.0000      -0.873889       -23.7797
  10   1.0000      -0.717156       -19.5148
  11   1.0000      -0.664294       -18.0764
  12   1.0000      -0.621282       -16.9059
  13   1.0000      -0.595767       -16.2116
  14   1.0000      -0.576422       -15.6853
  15   1.0000      -0.549198       -14.9444
  16   1.0000      -0.505240       -13.7483
  17   1.0000      -0.488092       -13.2816
  18   1.0000      -0.460949       -12.5431
  19   1.0000      -0.449715       -12.2374
  20   1.0000      -0.446801       -12.1581
  21   1.0000      -0.440313       -11.9815
  22   1.0000      -0.434579       -11.8255
  23   1.0000      -0.323674        -8.8076
  24   0.0000       0.084570         2.3013
  25   0.0000       0.094058         2.5595
  26   0.0000       0.129777         3.5314
  27   0.0000       0.132831         3.6145
  28   0.0000       0.139643         3.7999

                 SPIN DOWN ORBITALS
  NO   OCC          E(Eh)            E(eV)
   0   1.0000     -20.022257      -544.8333
   1   1.0000     -10.825778      -294.5844
   2   1.0000     -10.824355      -294.5457
   3   1.0000     -10.819398      -294.4108
   4   1.0000     -10.818732      -294.3927
   5   1.0000     -10.813660      -294.2547
   6   1.0000      -1.103991       -30.0411
   7   1.0000      -1.035183       -28.1688
   8   1.0000      -0.880173       -23.9507
   9   1.0000      -0.873888       -23.7797
  10   1.0000      -0.717135       -19.5142
  11   1.0000      -0.664319       -18.0770
  12   1.0000      -0.621290       -16.9062
  13   1.0000      -0.586855       -15.9691
  14   1.0000      -0.549599       -14.9553
  15   1.0000      -0.505387       -13.7523
  16   1.0000      -0.488081       -13.2814
  17   1.0000      -0.449724       -12.2376
  18   1.0000      -0.447489       -12.1768
  19   1.0000      -0.441480       -12.0133
  20   1.0000      -0.434587       -11.8257
  21   1.0000      -0.420903       -11.4534
  22   1.0000      -0.323127        -8.7927
  23   0.0000       0.008085         0.2200
  24   0.0000       0.088246         2.4013
  25   0.0000       0.095626         2.6021
  26   0.0000       0.130561         3.5527
  27   0.0000       0.134796         3.6680

MULLIKEN ATOMIC CHARGES AND SPIN DENSITIES
------------------------------------------
   0 C :   -0.108447   -0.000872
   1 C :   -0.181168   -0.000736
   2 C :   -0.107381    0.001150
   3 C :   -0.181115    0.000508
   4 C :   -0.188491   -0.001398
   5 H :    0.083849    0.000076
   6 H :    0.092293    0.000156
   7 H :    0.089656   -0.000030
   8 H :    0.090918   -0.001351
   9 H :    0.089756    0.000056
  10 H :    0.083512    0.000228
  11 H :    0.118335    0.000030
  12 H :    0.122146    0.000139
  13 O :   -0.253598    1.019717
  14 H :    0.249736   -0.017673
Sum of atomic charges       :   -0.0000000

LOEWDIN ATOMIC CHARGES AND SPIN DENSITIES
-----------------------------------------
   0 C :   -0.021251   -0.000107
   1 C :   -0.000844   -0.000178
   2 C :   -0.021172    0.000195
   3 C :   -0.014132   -0.000122
   4 C :   -0.015393   -0.001508
   5 H :    0.017977    0.000046
   6 H :    0.015601   -0.000003
   7 H :    0.007701   -0.000014
   8 H :    0.015551   -0.000420
   9 H :    0.014746    0.000089
  10 H :    0.018348    0.000080
  11 H :    0.003478   -0.000034
  12 H :    0.003389   -0.000074
  13 O :    0.156631    0.948497
  14 H :   -0.180630    0.053554

  Mayer bond orders larger than 0.100000
B(  0-C ,  1-C ) :   0.9083 B(  0-C ,  4-C ) :   0.9448 B(  0-C ,  5-H ) :   0.9562
B(  0-C ,  6-H ) :   0.9669 B(  1-C ,  2-C ) :   0.9120 B(  1-C ,  7-H ) :   0.9728
B(  1-C ,  8-H ) :   0.9780 B(  2-C ,  3-C ) :   0.9443 B(  2-C ,  9-H ) :   0.9684
B(  2-C , 10-H ) :   0.9558 B(  3-C ,  4-C ) :   1.7811 B(  3-C , 11-H ) :   0.9561
B(  4-C , 12-H ) :   0.9557 B( 13-O , 14-H ) :   0.9412

MP2 TOTAL ENERGY:     -270.658171394 Eh
Dispersion correction           -0.007380214
FINAL SINGLE POINT ENERGY      -270.665551608314

DIPOLE MOMENT
-------------

Method             : MP2
Type of density    : Electron Density
Multiplicity       :   2
Level              : Relaxed density
Irrep              :   0
Energy             :     0.0000000000000000 Eh
Basis              : AO
                                X                 Y                 Z
Electronic contribution:      0.152429548      -2.199099478       2.280011253
Nuclear contribution   :     -0.212019375       2.237502581      -3.170893001
                        -----------------------------------------
Total Dipole Moment    :     -0.059589828       0.038403102      -0.890881748
                        -----------------------------------------
Magnitude (a.u.)       :      0.893697955
Magnitude (Debye)      :      2.271599675

Rotational constants in cm-1:             0.134474             0.077878             0.076787
Rotational constants in MHz :          4031.427288          2334.713604          2302.009876

                             ****ORCA TERMINATED NORMALLY****
TOTAL RUN TIME: 0 days 0 hours 15 minutes 20 seconds 743 msec
