                         Program Version 6.1.0  -  RELEASE   -
|  1> % MaxCore 10000
|  2> ! PAL8
|  3> ! REVDSD-PBEP86-D4/2021 def2-TZVPP def2-TZVPP/c
|  4> ! OPT
|  5> * xyzfile 0 1 guess.xyz
|  6>
|  7>                          ****END OF INPUT****
 Total Charge           Charge          ....    0
 Multiplicity           Mult            ....    1
 Number of Electrons    NEL             ....   38
MP2 TOTAL ENERGY:     -194.999996215 Eh
Dispersion correction           -0.006606484
FINAL SINGLE POINT ENERGY      -195.006602699294
MP2 TOTAL ENERGY:     -195.000326928 Eh
Dispersion correction           -0.006584234
FINAL SINGLE POINT ENERGY      -195.006911162222
MP2 TOTAL ENERGY:     -195.000357899 Eh
Dispersion correction           -0.006580558
FINAL SINGLE POINT ENERGY      -195.006938457292
FINAL SINGLE POINT ENERGY      -195.006948477335
FINAL SINGLE POINT ENERGY      -195.006934622494
MP2 TOTAL ENERGY:     -195.000355585 Eh
Dispersion correction           -0.006584722
FINAL SINGLE POINT ENERGY      -195.006940307051
MP2 TOTAL ENERGY:     -195.000356342 Eh
Dispersion correction           -0.006585977
FINAL SINGLE POINT ENERGY      -195.006942318436
                    ***********************HURRAY********************

CARTESIAN COORDINATES (ANGSTROEM)
---------------------------------
  C      1.893576    1.417194   -0.019660
  C      0.663996    2.295658    0.298013
  C     -0.562560    1.415453   -0.026539
  C     -0.001292    0.017104    0.061482
  C      1.333849    0.018063    0.065216
  H      2.280195    1.609930   -1.027218
  H      2.719326    1.589978    0.674309
  H      0.664887    3.240234   -0.247009
  H      0.660851    2.528298    1.365164
  H     -1.392321    1.586977    0.662947
  H     -0.944001    1.607606   -1.036169
  H     -0.620868   -0.871247    0.072118
  H      1.954530   -0.869464    0.079540

 Multiplicity           Mult            ....    1
 Number of Electrons    NEL             ....   38
 Basis Dimension        Dim             ....  267

ORBITAL ENERGIES
----------------

  NO   OCC          E(Eh)            E(eV)
   0   2.0000     -10.807716      -294.0929
   1   2.0000     -10.807627      -294.0905
   2   2.0000     -10.807003      -294.0735
   3   2.0000     -10.805664      -294.0371
   4   2.0000     -10.805227      -294.0252
   5   2.0000      -1.020810       -27.7776
   6   2.0000      -0.865917       -23.5628
   7   2.0000      -0.860592       -23.4179
   8   2.0000      -0.705319       -19.1927
   9   2.0000      -0.649207       -17.6658
  10   2.0000      -0.606984       -16.5169
  11   2.0000      -0.572592       -15.5810
  12   2.0000      -0.493606       -13.4317
  13   2.0000      -0.473485       -12.8842
  14   2.0000      -0.436078       -11.8663
  15   2.0000      -0.435658       -11.8549
  16   2.0000      -0.429938       -11.6992
  17   2.0000      -0.422836       -11.5060
  18   2.0000      -0.304735        -8.2923
  19   0.0000       0.104001         2.8300
  20   0.0000       0.104817         2.8522
  21   0.0000       0.140089         3.8120
  22   0.0000       0.143065         3.8930
  23   0.0000       0.147203         4.0056

MULLIKEN ATOMIC CHARGES
-----------------------
   0 C :   -0.102431
   1 C :   -0.167964
   2 C :   -0.102372
   3 C :   -0.148676
   4 C :   -0.148624
   5 H :    0.075148
   6 H :    0.078480
   7 H :    0.082737
   8 H :    0.080717
   9 H :    0.078450
  10 H :    0.075164
  11 H :    0.099677
  12 H :    0.099694
Sum of atomic charges:    0.0000000

LOEWDIN ATOMIC CHARGES
----------------------
   0 C :   -0.021803
   1 C :   -0.001551
   2 C :   -0.021786
   3 C :   -0.014197
   4 C :   -0.014204
   5 H :    0.015193
   6 H :    0.011018
   7 H :    0.005710
   8 H :    0.014687
   9 H :    0.011019
  10 H :    0.015181
  11 H :    0.000365
  12 H :    0.000367

  Mayer bond orders larger than 0.100000
B(  0-C ,  1-C ) :   0.9217 B(  0-C ,  4-C ) :   0.9447 B(  0-C ,  5-H ) :   0.9555
B(  0-C ,  6-H ) :   0.9720 B(  1-C ,  2-C ) :   0.9217 B(  1-C ,  7-H ) :   0.9757
B(  1-C ,  8-H ) :   0.9733 B(  2-C ,  3-C ) :   0.9447 B(  2-C ,  9-H ) :   0.9720
B(  2-C , 10-H ) :   0.9555 B(  3-C ,  4-C ) :   1.8288 B(  3-C , 11-H ) :   0.9545
B(  4-C , 12-H ) :   0.9545

MP2 TOTAL ENERGY:     -195.000362606 Eh
Dispersion correction           -0.006586062
FINAL SINGLE POINT ENERGY      -195.006948667186

DIPOLE MOMENT
-------------

Method             : MP2
Type of density    : Electron Density
Multiplicity       :   1
Level              : Relaxed density
Irrep              :   0
Energy             :     0.0000000000000000 Eh
Basis              : AO
                                X                 Y                 Z
Electronic contribution:      0.001279043      -1.709905645       0.018964079
Nuclear contribution   :     -0.001250892       1.787194464      -0.051228957
                        -----------------------------------------
Total Dipole Moment    :      0.000028151       0.077288819      -0.032264878
                        -----------------------------------------
Magnitude (a.u.)       :      0.083753118
Magnitude (Debye)      :      0.212883508

Rotational constants in cm-1:             0.244557             0.242089             0.132349
Rotational constants in MHz :          7331.631117          7257.656147          3967.736048

                             ****ORCA TERMINATED NORMALLY****
TOTAL RUN TIME: 0 days 0 hours 3 minutes 23 seconds 839 msec
