                         Program Version 6.1.0  -  RELEASE   -
|  1> ! wB97X-3c
|  2> ! OPT
|  3> * xyzfile 0 1 guess.xyz
|  4>
|  5>                          ****END OF INPUT****
 Total Charge           Charge          ....    0
 Multiplicity           Mult            ....    1
 Number of Electrons    NEL             ....   28
Dispersion correction           -0.011758707
FINAL SINGLE POINT ENERGY       -33.289833569327
Dispersion correction             ... done (  0.0 sec)
Dispersion correction           -0.011762504
FINAL SINGLE POINT ENERGY       -33.289861911348
Dispersion correction             ... done (  0.0 sec)
Dispersion correction           -0.011763792
FINAL SINGLE POINT ENERGY       -33.289867813589
Dispersion correction             ... done (  0.0 sec)
Dispersion correction           -0.011763767
FINAL SINGLE POINT ENERGY       -33.289870817627
Dispersion correction             ... done (  0.0 sec)
                    ***********************HURRAY********************

CARTESIAN COORDINATES (ANGSTROEM)
---------------------------------
  C      1.886828    1.414969   -0.010752
  C      0.664034    2.291394    0.288001
  C     -0.555882    1.413245   -0.017532
  C      0.003920    0.022274    0.054041
  C      1.328585    0.023175    0.057701
  H      2.293651    1.608700   -1.007193
  H      2.700738    1.580681    0.695393
  H      0.664899    3.223792   -0.273709
  H      0.660825    2.551367    1.346740
  H     -1.373946    1.577849    0.684051
  H     -0.957296    1.606333   -1.016290
  H     -0.614987   -0.864915    0.057400
  H      1.948798   -0.863078    0.064342

 Multiplicity           Mult            ....    1
 Number of Electrons    NEL             ....   28
 Basis Dimension        Dim             ....  105

ORBITAL ENERGIES
----------------

  NO   OCC          E(Eh)            E(eV)
   0   2.0000      -0.985724       -26.8229
   1   2.0000      -0.843293       -22.9472
   2   2.0000      -0.840653       -22.8753
   3   2.0000      -0.698983       -19.0203
   4   2.0000      -0.649550       -17.6752
   5   2.0000      -0.617481       -16.8025
   6   2.0000      -0.586549       -15.9608
   7   2.0000      -0.508797       -13.8451
   8   2.0000      -0.486018       -13.2252
   9   2.0000      -0.456295       -12.4164
  10   2.0000      -0.452614       -12.3162
  11   2.0000      -0.447620       -12.1804
  12   2.0000      -0.445327       -12.1180
  13   2.0000      -0.339010        -9.2249
  14   0.0000       0.089804         2.4437
  15   0.0000       0.107306         2.9199
  16   0.0000       0.111427         3.0321
  17   0.0000       0.114489         3.1154
  18   0.0000       0.115959         3.1554

MULLIKEN ATOMIC CHARGES
-----------------------
   0 C :   -0.070442
   1 C :   -0.051065
   2 C :   -0.070440
   3 C :   -0.031137
   4 C :   -0.031136
   5 H :    0.038889
   6 H :    0.040477
   7 H :    0.034975
   8 H :    0.031407
   9 H :    0.040478
  10 H :    0.038894
  11 H :    0.014549
  12 H :    0.014549
Sum of atomic charges:    0.0000000

LOEWDIN ATOMIC CHARGES
----------------------
   0 C :   -0.082462
   1 C :   -0.066221
   2 C :   -0.082460
   3 C :   -0.045016
   4 C :   -0.044998
   5 H :    0.043181
   6 H :    0.042519
   7 H :    0.038730
   8 H :    0.043337
   9 H :    0.042519
  10 H :    0.043184
  11 H :    0.033845
  12 H :    0.033844

  Mayer bond orders larger than 0.100000
B(  0-C ,  1-C ) :   0.9821 B(  0-C ,  4-C ) :   1.0249 B(  0-C ,  5-H ) :   0.9829
B(  0-C ,  6-H ) :   0.9938 B(  1-C ,  2-C ) :   0.9821 B(  1-C ,  7-H ) :   1.0041
B(  1-C ,  8-H ) :   0.9987 B(  2-C ,  3-C ) :   1.0249 B(  2-C ,  9-H ) :   0.9938
B(  2-C , 10-H ) :   0.9829 B(  3-C ,  4-C ) :   1.9156 B(  3-C , 11-H ) :   1.0019
B(  4-C , 12-H ) :   1.0019

Dispersion correction           -0.011763819
FINAL SINGLE POINT ENERGY       -33.289869275484

DIPOLE MOMENT
-------------

Method             : SCF
Type of density    : Electron Density
Multiplicity       :   1
Irrep              :   0
Energy             :   -33.2781054562961813 Eh
Basis              : AO
                                X                 Y                 Z
Electronic contribution:      0.001478212      -2.293636442       0.012493511
Nuclear contribution   :     -0.001430827       2.386858138      -0.048254481
                        -----------------------------------------
Total Dipole Moment    :      0.000047385       0.093221696      -0.035760970
                        -----------------------------------------
Magnitude (a.u.)       :      0.099845549
Magnitude (Debye)      :      0.253787218

Rotational constants in cm-1:             0.246882             0.245010             0.133539
Rotational constants in MHz :          7401.347385          7345.223202          4003.391242

                             ****ORCA TERMINATED NORMALLY****
TOTAL RUN TIME: 0 days 0 hours 6 minutes 49 seconds 553 msec
