                         Program Version 6.1.0  -  RELEASE   -
|  1> !B3LYP cc-pVTZ OPT
|  2> * xyz 0 1
|  3>  C                  1.27786800    0.21987300    0.00000400
|  4>  C                  0.13407900   -0.45226600    0.00000300
|  5>  H                  1.29878900    1.30342900   -0.00001600
|  6>  H                  2.23356700   -0.28672700   -0.00001100
|  7>  H                  0.16671100   -1.53813400   -0.00001200
|  8>  C                 -1.23058900    0.16195500   -0.00000300
|  9>  H                 -1.80381700   -0.15348000   -0.87590700
| 10>  H                 -1.80373000   -0.15330000    0.87602600
| 11>  H                 -1.17966500    1.25083900   -0.00010800
| 12> **                         ****END OF INPUT****
 Total Charge           Charge          ....    0
 Multiplicity           Mult            ....    1
 Number of Electrons    NEL             ....   24
FINAL SINGLE POINT ENERGY      -117.869696088861
                    ***********************HURRAY********************

CARTESIAN COORDINATES (ANGSTROEM)
---------------------------------
  C      1.278120    0.219864   -0.000010
  C      0.134191   -0.452327   -0.000005
  H      1.299287    1.303705   -0.000027
  H      2.234080   -0.286854   -0.000002
  H      0.166754   -1.538476    0.000008
  C     -1.230955    0.162084   -0.000002
  H     -1.804094   -0.153603   -0.876180
  H     -1.804013   -0.153451    0.876286
  H     -1.180158    1.251247   -0.000092

 Multiplicity           Mult            ....    1
 Number of Electrons    NEL             ....   24
 Basis Dimension        Dim             ....  174

ORBITAL ENERGIES
----------------

  NO   OCC          E(Eh)            E(eV)
   0   2.0000     -10.174533      -276.8631
   1   2.0000     -10.166445      -276.6430
   2   2.0000     -10.158379      -276.4235
   3   2.0000      -0.785926       -21.3861
   4   2.0000      -0.684843       -18.6355
   5   2.0000      -0.552813       -15.0428
   6   2.0000      -0.466691       -12.6993
   7   2.0000      -0.421501       -11.4696
   8   2.0000      -0.412422       -11.2226
   9   2.0000      -0.371990       -10.1224
  10   2.0000      -0.344928        -9.3860
  11   2.0000      -0.258475        -7.0335
  12   0.0000       0.013702         0.3729
  13   0.0000       0.048812         1.3282
  14   0.0000       0.076197         2.0734
  15   0.0000       0.083350         2.2681
  16   0.0000       0.113758         3.0955

MULLIKEN ATOMIC CHARGES
-----------------------
   0 C :   -0.284961
   1 C :   -0.068281
   2 H :    0.105180
   3 H :    0.110933
   4 H :    0.114271
   5 C :   -0.272983
   6 H :    0.099911
   7 H :    0.099912
   8 H :    0.096018
Sum of atomic charges:    0.0000000

LOEWDIN ATOMIC CHARGES
----------------------
   0 C :    0.075368
   1 C :    0.012753
   2 H :   -0.045521
   3 H :   -0.043865
   4 H :   -0.033202
   5 C :    0.095692
   6 H :   -0.020019
   7 H :   -0.020017
   8 H :   -0.021188

  Mayer bond orders larger than 0.100000
B(  0-C ,  1-C ) :   1.8729 B(  0-C ,  2-H ) :   0.9595 B(  0-C ,  3-H ) :   0.9690
B(  1-C ,  4-H ) :   0.9598 B(  1-C ,  5-C ) :   0.9704 B(  5-C ,  6-H ) :   0.9605
B(  5-C ,  7-H ) :   0.9605 B(  5-C ,  8-H ) :   0.9721

FINAL SINGLE POINT ENERGY      -117.869727999940

DIPOLE MOMENT
-------------

Method             : SCF
Type of density    : Electron Density
Multiplicity       :   1
Irrep              :   0
Energy             :  -117.8697279999399115 Eh
Basis              : AO
                                X                 Y                 Z
Electronic contribution:      1.010711824      -0.482409590      -0.000015174
Nuclear contribution   :     -1.165527597       0.452541685       0.000021399
                        -----------------------------------------
Total Dipole Moment    :     -0.154815774      -0.029867905       0.000006225
                        -----------------------------------------
Magnitude (a.u.)       :      0.157670592
Magnitude (Debye)      :      0.400766795

Rotational constants in cm-1:             1.574808             0.310549             0.272371
Rotational constants in MHz :         47211.557904          9310.011463          8165.465063

                             ****ORCA TERMINATED NORMALLY****
TOTAL RUN TIME: 0 days 0 hours 0 minutes 46 seconds 558 msec
