                         Program Version 6.1.0  -  RELEASE   -
|  1> ! wB97X-3c
|  2> ! OPT
|  3> * xyz 0 1
|  4>  C                  1.27786800    0.21987300    0.00000400
|  5>  C                  0.13407900   -0.45226600    0.00000300
|  6>  H                  1.29878900    1.30342900   -0.00001600
|  7>  H                  2.23356700   -0.28672700   -0.00001100
|  8>  H                  0.16671100   -1.53813400   -0.00001200
|  9>  C                 -1.23058900    0.16195500   -0.00000300
| 10>  H                 -1.80381700   -0.15348000   -0.87590700
| 11>  H                 -1.80373000   -0.15330000    0.87602600
| 12>  H                 -1.17966500    1.25083900   -0.00010800
| 13> **                         ****END OF INPUT****
 Total Charge           Charge          ....    0
 Multiplicity           Mult            ....    1
 Number of Electrons    NEL             ....   18
Dispersion correction           -0.005259578
FINAL SINGLE POINT ENERGY       -20.685768977406
Dispersion correction             ... done (  0.0 sec)
Dispersion correction           -0.005271110
FINAL SINGLE POINT ENERGY       -20.685838470650
Dispersion correction             ... done (  0.0 sec)
Dispersion correction           -0.005273599
FINAL SINGLE POINT ENERGY       -20.685844693058
Dispersion correction             ... done (  0.0 sec)
Dispersion correction           -0.005274172
FINAL SINGLE POINT ENERGY       -20.685844229037
Dispersion correction             ... done (  0.0 sec)
                    ***********************HURRAY********************

CARTESIAN COORDINATES (ANGSTROEM)
---------------------------------
  C      1.269857    0.219905   -0.000019
  C      0.130902   -0.453825    0.000008
  H      1.284487    1.303582   -0.000053
  H      2.225694   -0.286857   -0.000010
  H      0.166698   -1.539113    0.000039
  C     -1.226550    0.162158    0.000002
  H     -1.794355   -0.151428   -0.876336
  H     -1.794312   -0.151325    0.876404
  H     -1.169208    1.249092   -0.000060

 Multiplicity           Mult            ....    1
 Number of Electrons    NEL             ....   18
 Basis Dimension        Dim             ....   69

ORBITAL ENERGIES
----------------

  NO   OCC          E(Eh)            E(eV)
   0   2.0000      -0.929051       -25.2808
   1   2.0000      -0.820582       -22.3292
   2   2.0000      -0.678821       -18.4717
   3   2.0000      -0.585708       -15.9379
   4   2.0000      -0.534792       -14.5524
   5   2.0000      -0.527670       -14.3586
   6   2.0000      -0.480021       -13.0620
   7   2.0000      -0.452268       -12.3068
   8   2.0000      -0.360514        -9.8101
   9   0.0000       0.095817         2.6073
  10   0.0000       0.099248         2.7007
  11   0.0000       0.111952         3.0464
  12   0.0000       0.119598         3.2544
  13   0.0000       0.147260         4.0071

MULLIKEN ATOMIC CHARGES
-----------------------
   0 C :   -0.045937
   1 C :   -0.057777
   2 H :    0.018979
   3 H :    0.025034
   4 H :    0.013450
   5 C :   -0.069988
   6 H :    0.043894
   7 H :    0.043895
   8 H :    0.028450
Sum of atomic charges:    0.0000000

LOEWDIN ATOMIC CHARGES
----------------------
   0 C :   -0.084402
   1 C :   -0.058895
   2 H :    0.032650
   3 H :    0.035514
   4 H :    0.041218
   5 C :   -0.115703
   6 H :    0.050282
   7 H :    0.050282
   8 H :    0.049054

  Mayer bond orders larger than 0.100000
B(  0-C ,  1-C ) :   1.9353 B(  0-C ,  2-H ) :   1.0010 B(  0-C ,  3-H ) :   0.9996
B(  1-C ,  4-H ) :   1.0059 B(  1-C ,  5-C ) :   1.0316 B(  5-C ,  6-H ) :   0.9799
B(  5-C ,  7-H ) :   0.9799 B(  5-C ,  8-H ) :   0.9916

Dispersion correction           -0.005274105
FINAL SINGLE POINT ENERGY       -20.685845241640

DIPOLE MOMENT
-------------

Method             : SCF
Type of density    : Electron Density
Multiplicity       :   1
Irrep              :   0
Energy             :   -20.6805711363732350 Eh
Basis              : AO
                                X                 Y                 Z
Electronic contribution:      1.369891033      -0.634970921       0.000002738
Nuclear contribution   :     -1.536527207       0.609999830       0.000001483
                        -----------------------------------------
Total Dipole Moment    :     -0.166636174      -0.024971091       0.000004221
                        -----------------------------------------
Magnitude (a.u.)       :      0.168496795
Magnitude (Debye)      :      0.428284817

Rotational constants in cm-1:             1.573053             0.313796             0.274816
Rotational constants in MHz :         47158.934421          9407.359872          8238.778865

                             ****ORCA TERMINATED NORMALLY****
TOTAL RUN TIME: 0 days 0 hours 2 minutes 16 seconds 54 msec
