                         Program Version 6.1.0  -  RELEASE   -
|  1> ! wB97X-3c
|  2> ! OPT
|  3> * xyzfile 0 2 guess.xyz
|  4>
|  5>                          ****END OF INPUT****
 Total Charge           Charge          ....    0
 Multiplicity           Mult            ....    2
 Number of Electrons    NEL             ....   35
Dispersion correction           -0.013149335
FINAL SINGLE POINT ENERGY       -49.865090868385
Dispersion correction             ... done (  0.0 sec)
Dispersion correction           -0.013132797
FINAL SINGLE POINT ENERGY       -49.865683497595
Dispersion correction             ... done (  0.0 sec)
Dispersion correction           -0.013118368
FINAL SINGLE POINT ENERGY       -49.865858315146
Dispersion correction             ... done (  0.0 sec)
FINAL SINGLE POINT ENERGY       -49.865912776875
FINAL SINGLE POINT ENERGY       -49.865943154343
FINAL SINGLE POINT ENERGY       -49.865952083896
FINAL SINGLE POINT ENERGY       -49.865960166772
FINAL SINGLE POINT ENERGY       -49.865969823597
FINAL SINGLE POINT ENERGY       -49.865980271998
FINAL SINGLE POINT ENERGY       -49.865989204400
FINAL SINGLE POINT ENERGY       -49.866083567178
FINAL SINGLE POINT ENERGY       -49.866088870817
FINAL SINGLE POINT ENERGY       -49.866093909275
FINAL SINGLE POINT ENERGY       -49.866100784288
FINAL SINGLE POINT ENERGY       -49.866108341178
FINAL SINGLE POINT ENERGY       -49.866113853180
FINAL SINGLE POINT ENERGY       -49.866116902403
Dispersion correction             ... done (  0.0 sec)
Dispersion correction           -0.012988617
FINAL SINGLE POINT ENERGY       -49.866118181528
Dispersion correction             ... done (  0.0 sec)
Dispersion correction           -0.012988825
FINAL SINGLE POINT ENERGY       -49.866119324087
Dispersion correction             ... done (  0.0 sec)
                    ***********************HURRAY********************

CARTESIAN COORDINATES (ANGSTROEM)
---------------------------------
  C      1.887066    1.416024   -0.006601
  C      0.664001    2.293339    0.289395
  C     -0.556688    1.414176   -0.012521
  C      0.002142    0.022015    0.058376
  C      1.329534    0.024011    0.059293
  H      2.294372    1.602636   -1.003766
  H      2.700328    1.580894    0.699910
  H      0.664002    3.220892   -0.279651
  H      0.664018    2.563154    1.345612
  H     -1.377291    1.581298    0.685364
  H     -0.956581    1.599011   -1.013068
  H     -0.613643   -0.868027    0.047792
  H      1.948904   -0.863637    0.052059
  O      0.981952   -0.056119    3.342804
  H      0.726682   -0.072575    2.400159

 Multiplicity           Mult            ....    2
 Number of Electrons    NEL             ....   35
 Basis Dimension        Dim             ....  123

ORBITAL ENERGIES
----------------
                 SPIN UP ORBITALS
  NO   OCC          E(Eh)            E(eV)
   0   1.0000      -1.122726       -30.5509
   1   1.0000      -1.001228       -27.2448
   2   1.0000      -0.858592       -23.3635
   3   1.0000      -0.854406       -23.2496
   4   1.0000      -0.712001       -19.3745
   5   1.0000      -0.665003       -18.0957
   6   1.0000      -0.632484       -17.2108
   7   1.0000      -0.602625       -16.3982
   8   1.0000      -0.579550       -15.7704
   9   1.0000      -0.523381       -14.2419
  10   1.0000      -0.519252       -14.1296
  11   1.0000      -0.501545       -13.6477
  12   1.0000      -0.469154       -12.7663
  13   1.0000      -0.467191       -12.7129
  14   1.0000      -0.459870       -12.5137
  15   1.0000      -0.458079       -12.4650
  16   1.0000      -0.452229       -12.3058
  17   1.0000      -0.358065        -9.7434
  18   0.0000       0.079506         2.1635
  19   0.0000       0.086387         2.3507
  20   0.0000       0.101253         2.7552
  21   0.0000       0.107326         2.9205
  22   0.0000       0.110520         3.0074

                 SPIN DOWN ORBITALS
  NO   OCC          E(Eh)            E(eV)
   0   1.0000      -1.050263       -28.5791
   1   1.0000      -1.001040       -27.2397
   2   1.0000      -0.858588       -23.3634
   3   1.0000      -0.854405       -23.2495
   4   1.0000      -0.711978       -19.3739
   5   1.0000      -0.664994       -18.0954
   6   1.0000      -0.632457       -17.2100
   7   1.0000      -0.600715       -16.3463
   8   1.0000      -0.554184       -15.0801
   9   1.0000      -0.521280       -14.1847
  10   1.0000      -0.501514       -13.6469
  11   1.0000      -0.469062       -12.7638
  12   1.0000      -0.467204       -12.7133
  13   1.0000      -0.459775       -12.5111
  14   1.0000      -0.458054       -12.4643
  15   1.0000      -0.424924       -11.5628
  16   1.0000      -0.357549        -9.7294
  17   0.0000      -0.057178        -1.5559
  18   0.0000       0.080565         2.1923
  19   0.0000       0.087256         2.3744
  20   0.0000       0.102011         2.7758
  21   0.0000       0.108631         2.9560

MULLIKEN ATOMIC CHARGES AND SPIN POPULATIONS
--------------------------------------------
   0 C :   -0.065486    0.000177
   1 C :   -0.049930    0.000225
   2 C :   -0.068983   -0.000073
   3 C :   -0.060835    0.001108
   4 C :   -0.057991   -0.002338
   5 H :    0.044219   -0.000047
   6 H :    0.049187   -0.000389
   7 H :    0.039249    0.000041
   8 H :    0.035805   -0.000743
   9 H :    0.045840   -0.000148
  10 H :    0.044951    0.000190
  11 H :    0.028433   -0.000094
  12 H :    0.028741   -0.000036
  13 O :   -0.191987    1.013401
  14 H :    0.178786   -0.011274
Sum of atomic charges         :   -0.0000000

LOEWDIN ATOMIC CHARGES AND SPIN POPULATIONS
-------------------------------------------
   0 C :   -0.079555   -0.000085
   1 C :   -0.064320    0.000011
   2 C :   -0.081568    0.000146
   3 C :   -0.043205    0.000300
   4 C :   -0.038941   -0.001560
   5 H :    0.047269   -0.000039
   6 H :    0.046195   -0.000107
   7 H :    0.041725    0.000015
   8 H :    0.044799   -0.000104
   9 H :    0.044261    0.000046
  10 H :    0.047479    0.000111
  11 H :    0.036103   -0.000007
  12 H :    0.036964    0.000005
  13 O :   -0.044556    0.972890
  14 H :    0.007351    0.028379

  Mayer bond orders larger than 0.100000
B(  0-C ,  1-C ) :   0.9798 B(  0-C ,  4-C ) :   1.0279 B(  0-C ,  5-H ) :   0.9824
B(  0-C ,  6-H ) :   0.9898 B(  1-C ,  2-C ) :   0.9794 B(  1-C ,  7-H ) :   1.0040
B(  1-C ,  8-H ) :   0.9972 B(  2-C ,  3-C ) :   1.0276 B(  2-C ,  9-H ) :   0.9909
B(  2-C , 10-H ) :   0.9826 B(  3-C ,  4-C ) :   1.9056 B(  3-C , 11-H ) :   0.9985
B(  4-C , 12-H ) :   0.9989 B( 13-O , 14-H ) :   1.0490

Dispersion correction           -0.012989331
FINAL SINGLE POINT ENERGY       -49.866121323466

DIPOLE MOMENT
-------------

Method             : SCF
Type of density    : Electron Density
Multiplicity       :   2
Irrep              :   0
Energy             :   -49.8531319922116012 Eh
Basis              : AO
                                X                 Y                 Z
Electronic contribution:      0.107155161      -2.155276801       0.163329398
Nuclear contribution   :     -0.275310123       2.339812328      -1.092567169
                        -----------------------------------------
Total Dipole Moment    :     -0.168154962       0.184535526      -0.929237771
                        -----------------------------------------
Magnitude (a.u.)       :      0.962191398
Magnitude (Debye)      :      2.445696171

Rotational constants in cm-1:             0.140754             0.073967             0.071700
Rotational constants in MHz :          4219.701904          2217.476420          2149.501820

                             ****ORCA TERMINATED NORMALLY****
TOTAL RUN TIME: 0 days 1 hours 0 minutes 29 seconds 461 msec
