                         Program Version 6.1.0  -  RELEASE   -
|  1> % MaxCore 10000
|  2> ! PAL8
|  3> ! REVDSD-PBEP86-D4/2021 def2-TZVPP def2-TZVPP/c
|  4> ! OptTS
|  5> ! NumFreq
|  6> %geom
|  7>    Calc_Hess true
|  8>    NumHess   true
|  9> end
| 10> * xyzfile 0 2 guess.xyz
| 11>
| 12>                          ****END OF INPUT****
 Total Charge           Charge          ....    0
 Multiplicity           Mult            ....    2
 Number of Electrons    NEL             ....   47
MP2 TOTAL ENERGY:     -270.652483675 Eh
Dispersion correction           -0.008019173
FINAL SINGLE POINT ENERGY      -270.660502848499
MP2 TOTAL ENERGY:     -270.653536829 Eh
Dispersion correction           -0.008017927
FINAL SINGLE POINT ENERGY      -270.661554756166
MP2 TOTAL ENERGY:     -270.653805407 Eh
Dispersion correction           -0.008044514
FINAL SINGLE POINT ENERGY      -270.661849921348
FINAL SINGLE POINT ENERGY      -270.662013157615
FINAL SINGLE POINT ENERGY      -270.662058951928
FINAL SINGLE POINT ENERGY      -270.662130999938
FINAL SINGLE POINT ENERGY      -270.662251904026
FINAL SINGLE POINT ENERGY      -270.662398164888
FINAL SINGLE POINT ENERGY      -270.662695357898
FINAL SINGLE POINT ENERGY      -270.662840918229
FINAL SINGLE POINT ENERGY      -270.663199798656
FINAL SINGLE POINT ENERGY      -270.663229619523
FINAL SINGLE POINT ENERGY      -270.663256239727
FINAL SINGLE POINT ENERGY      -270.663282697428
FINAL SINGLE POINT ENERGY      -270.663308017147
FINAL SINGLE POINT ENERGY      -270.663347459650
FINAL SINGLE POINT ENERGY      -270.663376022395
MP2 TOTAL ENERGY:     -270.655260263 Eh
Dispersion correction           -0.008123760
FINAL SINGLE POINT ENERGY      -270.663384022512
MP2 TOTAL ENERGY:     -270.655262611 Eh
Dispersion correction           -0.008123047
FINAL SINGLE POINT ENERGY      -270.663385657394
                    ***********************HURRAY********************

CARTESIAN COORDINATES (ANGSTROEM)
---------------------------------
  C      1.910696    1.410401   -0.031461
  C      0.699204    2.301734    0.312396
  C     -0.543951    1.438314    0.004495
  C     -0.003502    0.036638    0.030755
  C      1.343501    0.019940    0.064514
  H      2.269626    1.585785   -1.052028
  H      2.750884    1.560123    0.646422
  H      0.700792    3.243296   -0.237103
  H      0.718852    2.525596    1.378027
  H     -1.350390    1.590793    0.724583
  H     -0.957399    1.654596   -0.988235
  H     -0.629409   -0.846618   -0.001803
  H      1.951569   -0.870382   -0.013591
  O      1.192161   -0.009838    2.206779
  H      0.737701   -0.854639    2.328103

 Multiplicity           Mult            ....    2
 Number of Electrons    NEL             ....   47
 Basis Dimension        Dim             ....  312

ORBITAL ENERGIES
----------------
                 SPIN UP ORBITALS
  NO   OCC          E(Eh)            E(eV)
   0   1.0000     -20.024290      -544.8886
   1   1.0000     -10.826601      -294.6068
   2   1.0000     -10.818219      -294.3787
   3   1.0000     -10.808293      -294.1086
   4   1.0000     -10.807212      -294.0792
   5   1.0000     -10.801835      -293.9329
   6   1.0000      -1.202280       -32.7157
   7   1.0000      -1.028097       -27.9759
   8   1.0000      -0.874361       -23.7926
   9   1.0000      -0.865448       -23.5500
  10   1.0000      -0.708110       -19.2686
  11   1.0000      -0.660801       -17.9813
  12   1.0000      -0.615606       -16.7515
  13   1.0000      -0.590400       -16.0656
  14   1.0000      -0.552945       -15.0464
  15   1.0000      -0.519908       -14.1474
  16   1.0000      -0.495468       -13.4824
  17   1.0000      -0.478366       -13.0170
  18   1.0000      -0.443935       -12.0801
  19   1.0000      -0.437342       -11.9007
  20   1.0000      -0.433547       -11.7974
  21   1.0000      -0.424635       -11.5549
  22   1.0000      -0.422231       -11.4895
  23   1.0000      -0.297235        -8.0882
  24   0.0000       0.095301         2.5933
  25   0.0000       0.108508         2.9527
  26   0.0000       0.124872         3.3979
  27   0.0000       0.141709         3.8561
  28   0.0000       0.145588         3.9617

                 SPIN DOWN ORBITALS
  NO   OCC          E(Eh)            E(eV)
   0   1.0000     -19.993107      -544.0401
   1   1.0000     -10.830378      -294.7096
   2   1.0000     -10.809322      -294.1366
   3   1.0000     -10.808702      -294.1197
   4   1.0000     -10.806774      -294.0673
   5   1.0000     -10.801812      -293.9322
   6   1.0000      -1.103477       -30.0271
   7   1.0000      -1.019465       -27.7410
   8   1.0000      -0.869591       -23.6628
   9   1.0000      -0.861581       -23.4448
  10   1.0000      -0.706196       -19.2166
  11   1.0000      -0.655725       -17.8432
  12   1.0000      -0.613149       -16.6846
  13   1.0000      -0.579538       -15.7700
  14   1.0000      -0.528189       -14.3727
  15   1.0000      -0.491936       -13.3862
  16   1.0000      -0.477690       -12.9986
  17   1.0000      -0.442109       -12.0304
  18   1.0000      -0.435943       -11.8626
  19   1.0000      -0.430678       -11.7194
  20   1.0000      -0.424485       -11.5508
  21   1.0000      -0.395862       -10.7720
  22   1.0000      -0.318486        -8.6665
  23   0.0000       0.028315         0.7705
  24   0.0000       0.098538         2.6814
  25   0.0000       0.123408         3.3581
  26   0.0000       0.128120         3.4863
  27   0.0000       0.141979         3.8634

MULLIKEN ATOMIC CHARGES AND SPIN DENSITIES
------------------------------------------
   0 C :   -0.141395   -0.015396
   1 C :   -0.148177    0.000117
   2 C :   -0.115861   -0.006763
   3 C :   -0.176852    0.194714
   4 C :   -0.041403    0.107954
   5 H :    0.082709    0.002414
   6 H :    0.095133    0.005022
   7 H :    0.085763   -0.000509
   8 H :    0.099471    0.000286
   9 H :    0.084912    0.007380
  10 H :    0.085553    0.011146
  11 H :    0.120058   -0.004182
  12 H :    0.136832   -0.009614
  13 O :   -0.362311    0.716788
  14 H :    0.195568   -0.009359
Sum of atomic charges       :   -0.0000000

LOEWDIN ATOMIC CHARGES AND SPIN DENSITIES
-----------------------------------------
   0 C :   -0.014384   -0.000268
   1 C :    0.002149   -0.000866
   2 C :   -0.017687    0.015414
   3 C :    0.023610    0.157088
   4 C :    0.008242    0.099269
   5 H :    0.017311    0.000736
   6 H :    0.020032    0.001519
   7 H :    0.005644   -0.000262
   8 H :    0.018958   -0.000007
   9 H :    0.017727    0.003897
  10 H :    0.019263    0.007124
  11 H :    0.002313    0.011053
  12 H :    0.009671    0.002066
  13 O :    0.082730    0.663982
  14 H :   -0.195580    0.039257

  Mayer bond orders larger than 0.100000
B(  0-C ,  1-C ) :   0.9244 B(  0-C ,  4-C ) :   0.9421 B(  0-C ,  5-H ) :   0.9556
B(  0-C ,  6-H ) :   0.9642 B(  1-C ,  2-C ) :   0.9220 B(  1-C ,  7-H ) :   0.9769
B(  1-C ,  8-H ) :   0.9656 B(  2-C ,  3-C ) :   0.9552 B(  2-C ,  9-H ) :   0.9629
B(  2-C , 10-H ) :   0.9564 B(  3-C ,  4-C ) :   1.6524 B(  3-C , 11-H ) :   0.9493
B(  3-C , 13-O ) :   0.2093 B(  4-C , 12-H ) :   0.9428 B(  4-C , 13-O ) :   0.2273
B( 13-O , 14-H ) :   0.9845

MP2 TOTAL ENERGY:     -270.655260833 Eh
Dispersion correction           -0.008122734
FINAL SINGLE POINT ENERGY      -270.663383567243

DIPOLE MOMENT
-------------

Method             : MP2
Type of density    : Electron Density
Multiplicity       :   2
Level              : Relaxed density
Irrep              :   0
Energy             :     0.0000000000000000 Eh
Basis              : AO
                                X                 Y                 Z
Electronic contribution:      0.419530225      -2.117720572       1.017819915
Nuclear contribution   :     -0.753184194       1.836556921      -1.596487876
                        -----------------------------------------
Total Dipole Moment    :     -0.333653969      -0.281163651      -0.578667960
                        -----------------------------------------
Magnitude (a.u.)       :      0.724730693
Magnitude (Debye)      :      1.842119027

VIBRATIONAL FREQUENCIES
-----------------------

Scaling factor for frequencies =  1.000000000  (already applied!)

     0:       0.00 cm**-1
     1:       0.00 cm**-1
     2:       0.00 cm**-1
     3:       0.00 cm**-1
     4:       0.00 cm**-1
     5:       0.00 cm**-1
     6:    -308.36 cm**-1  ***imaginary mode***
     7:     113.72 cm**-1
     8:     140.37 cm**-1
     9:     210.53 cm**-1
    10:     353.79 cm**-1
    11:     424.05 cm**-1
    12:     609.66 cm**-1
    13:     686.10 cm**-1
    14:     760.73 cm**-1
    15:     781.85 cm**-1
    16:     834.86 cm**-1
    17:     889.06 cm**-1
    18:     920.82 cm**-1
    19:     929.21 cm**-1
    20:     986.11 cm**-1
    21:     997.00 cm**-1
    22:    1048.13 cm**-1
    23:    1073.74 cm**-1
    24:    1137.29 cm**-1
    25:    1153.41 cm**-1
    26:    1227.59 cm**-1
    27:    1240.44 cm**-1
    28:    1313.44 cm**-1
    29:    1335.10 cm**-1
    30:    1341.05 cm**-1
    31:    1395.55 cm**-1
    32:    1477.83 cm**-1
    33:    1486.84 cm**-1
    34:    1503.63 cm**-1
    35:    1662.43 cm**-1
    36:    3025.19 cm**-1
    37:    3041.46 cm**-1
    38:    3088.14 cm**-1
    39:    3097.01 cm**-1
    40:    3121.07 cm**-1
    41:    3141.08 cm**-1
    42:    3204.83 cm**-1
    43:    3235.16 cm**-1
    44:    3789.96 cm**-1

IR SPECTRUM
-----------

 Mode   freq       eps      Int      T**2         TX        TY        TZ
       cm**-1   L/(mol*cm) km/mol    a.u.
----------------------------------------------------------------------------
  7:    113.72   0.000836    4.22  0.002293  ( 0.033143 -0.006234 -0.033996)
  8:    140.37   0.001272    6.43  0.002827  ( 0.039044 -0.035791  0.004677)
  9:    210.53   0.003049   15.41  0.004520  (-0.021037 -0.016239  0.061756)
 10:    353.79   0.000673    3.40  0.000594  (-0.014140  0.011075 -0.016463)
 11:    424.05   0.012653   63.95  0.009312  (-0.083365  0.047358  0.010919)
 12:    609.66   0.000169    0.86  0.000087  (-0.003858  0.000941  0.008423)
 13:    686.10   0.009216   46.57  0.004192  (-0.001903 -0.001733 -0.064691)
 14:    760.73   0.008331   42.10  0.003418  (-0.001623 -0.003217  0.058350)
 15:    781.85   0.000014    0.07  0.000005  (-0.002106 -0.000904 -0.000382)
 16:    834.86   0.001384    7.00  0.000517  ( 0.000723  0.004195  0.022346)
 17:    889.06   0.000455    2.30  0.000160  ( 0.012557 -0.000824 -0.001133)
 18:    920.82   0.000187    0.95  0.000064  (-0.005389  0.004916  0.003210)
 19:    929.21   0.002701   13.65  0.000907  (-0.028256  0.000058 -0.010429)
 20:    986.11   0.001166    5.89  0.000369  ( 0.006204 -0.000789  0.018164)
 21:    997.00   0.000297    1.50  0.000093  (-0.000064  0.006536 -0.007078)
 22:   1048.13   0.000643    3.25  0.000191  ( 0.013393 -0.002056  0.002780)
 23:   1073.74   0.002502   12.64  0.000727  (-0.001769  0.000711 -0.026898)
 24:   1137.29   0.001547    7.82  0.000424  (-0.002502  0.003714 -0.020108)
 25:   1153.41   0.000374    1.89  0.000101  (-0.008907  0.002052 -0.004201)
 26:   1227.59   0.000029    0.15  0.000007  (-0.000421 -0.002128 -0.001638)
 27:   1240.44   0.000458    2.31  0.000115  (-0.000968 -0.002736 -0.010333)
 28:   1313.44   0.000431    2.18  0.000102  (-0.009975  0.000065 -0.001699)
 29:   1335.10   0.000059    0.30  0.000014  (-0.001684 -0.002682 -0.001957)
 30:   1341.05   0.000366    1.85  0.000085  ( 0.002460  0.008652  0.002067)
 31:   1395.55   0.000551    2.79  0.000123  (-0.011056  0.000748  0.000690)
 32:   1477.83   0.001228    6.20  0.000259  ( 0.004942  0.000509  0.015315)
 33:   1486.84   0.000780    3.94  0.000164  (-0.011103  0.002808  0.005708)
 34:   1503.63   0.000731    3.69  0.000152  (-0.003498 -0.011198 -0.003738)
 35:   1662.43   0.031264  158.00  0.005869  ( 0.003910 -0.025778  0.072035)
 36:   3025.19   0.005754   29.08  0.000594  ( 0.018487 -0.004131  0.015321)
 37:   3041.46   0.006635   33.53  0.000681  ( 0.020691  0.002221 -0.015740)
 38:   3088.14   0.003483   17.60  0.000352  (-0.010484 -0.014186  0.006386)
 39:   3097.01   0.006455   32.62  0.000650  (-0.012278  0.021779  0.005035)
 40:   3121.07   0.002776   14.03  0.000278  ( 0.013311  0.009083  0.004227)
 41:   3141.08   0.003818   19.29  0.000379  ( 0.000231 -0.008041  0.017737)
 42:   3204.83   0.001192    6.02  0.000116  ( 0.007193  0.007047  0.003829)
 43:   3235.16   0.003186   16.10  0.000307  (-0.000771  0.012017  0.012742)
 44:   3789.96   0.004560   23.04  0.000375  ( 0.002433  0.012041 -0.014985)

--------------------------
THERMOCHEMISTRY AT 298.15K
--------------------------

Temperature         ...   298.15 K
Pressure            ...     1.00 atm
Total Mass          ...    85.13 AMU
Quasi RRHO          ...     True
Cut-Off Frequency   ...     1.00 cm^-1

Throughout the following assumptions are being made:
  (1) The electronic state is orbitally nondegenerate
      but the spin degeneracy is treated
  (2) There are no thermally accessible electronically excited states
  (3) Hindered rotations indicated by low frequency modes are not
      treated as such but are treated as vibrations and this may
      cause some error
  (4) All equations used are the standard statistical mechanics
      equations for an ideal gas
  (5) All vibrations are strictly harmonic

freq.     113.72  E(vib)   ...       0.44
freq.     140.37  E(vib)   ...       0.41
freq.     210.53  E(vib)   ...       0.34
freq.     353.79  E(vib)   ...       0.22
freq.     424.05  E(vib)   ...       0.18
freq.     609.66  E(vib)   ...       0.10
freq.     686.10  E(vib)   ...       0.07
freq.     760.73  E(vib)   ...       0.06
freq.     781.85  E(vib)   ...       0.05
freq.     834.86  E(vib)   ...       0.04
freq.     889.06  E(vib)   ...       0.04
freq.     920.82  E(vib)   ...       0.03
freq.     929.21  E(vib)   ...       0.03
freq.     986.11  E(vib)   ...       0.02
freq.     997.00  E(vib)   ...       0.02
freq.    1048.13  E(vib)   ...       0.02
freq.    1073.74  E(vib)   ...       0.02
freq.    1137.29  E(vib)   ...       0.01
freq.    1153.41  E(vib)   ...       0.01
freq.    1227.59  E(vib)   ...       0.01
freq.    1240.44  E(vib)   ...       0.01
freq.    1313.44  E(vib)   ...       0.01
freq.    1335.10  E(vib)   ...       0.01
freq.    1341.05  E(vib)   ...       0.01
freq.    1395.55  E(vib)   ...       0.00
freq.    1477.83  E(vib)   ...       0.00
freq.    1486.84  E(vib)   ...       0.00
freq.    1503.63  E(vib)   ...       0.00
freq.    1662.43  E(vib)   ...       0.00
freq.    3025.19  E(vib)   ...       0.00
freq.    3041.46  E(vib)   ...       0.00
freq.    3088.14  E(vib)   ...       0.00
freq.    3097.01  E(vib)   ...       0.00
freq.    3121.07  E(vib)   ...       0.00
freq.    3141.08  E(vib)   ...       0.00
freq.    3204.83  E(vib)   ...       0.00
freq.    3235.16  E(vib)   ...       0.00
freq.    3789.96  E(vib)   ...       0.00

------------
INNER ENERGY
------------

The inner energy is: U= E(el) + E(ZPE) + E(vib) + E(rot) + E(trans)
    E(el)   - is the total energy from the electronic structure calculation
              = E(kin-el) + E(nuc-el) + E(el-el) + E(nuc-nuc)
    E(ZPE)  - the the zero temperature vibrational energy from the frequency calculation
    E(vib)  - the the finite temperature correction to E(ZPE) due to population
              of excited vibrational states
    E(rot)  - is the rotational thermal energy
    E(trans)- is the translational thermal energy

Summary of contributions to the inner energy U:
Electronic energy                ...   -270.66338263 Eh
Zero point energy                ...      0.12935034 Eh      81.17 kcal/mol
Thermal vibrational correction   ...      0.00348872 Eh       2.19 kcal/mol
Thermal rotational correction    ...      0.00141627 Eh       0.89 kcal/mol
Thermal translational correction ...      0.00141627 Eh       0.89 kcal/mol
-----------------------------------------------------------------------
Total thermal energy                   -270.52771103 Eh

Summary of corrections to the electronic energy:
(perhaps to be used in another calculation)
Total thermal correction                  0.00632126 Eh       3.97 kcal/mol
Non-thermal (ZPE) correction              0.12935034 Eh      81.17 kcal/mol
-----------------------------------------------------------------------
Total correction                          0.13567160 Eh      85.14 kcal/mol

--------
ENTHALPY
--------

The enthalpy is H = U + kB*T
                kB is Boltzmann's constant
Total thermal energy              ...   -270.52771103 Eh
Thermal Enthalpy correction       ...      0.00094421 Eh       0.59 kcal/mol
-----------------------------------------------------------------------
Total Enthalpy                    ...   -270.52676682 Eh

Note: Only C1 symmetry has been detected, increase convergence thresholds
      if your molecule has a higher symmetry. Symmetry factor of 1.0 is
      used for the rotational entropy correction.

Note: Rotational entropy computed according to Herzberg
Infrared and Raman Spectra, Chapter V,1, Van Nostrand Reinhold, 1945
Point Group:  C1, Symmetry Number:   1
Rotational constants in cm-1:     0.156239     0.110723     0.097224

Vibrational entropy computed according to the QRRHO of S. Grimme
Chem.Eur.J. 2012 18 9955 using a reference frequency of 100.0 cm-1

-------
ENTROPY
-------

The entropy contributions are T*S = T*(S(el)+S(vib)+S(rot)+S(trans))
     S(el)   - electronic entropy
     S(vib)  - vibrational entropy
     S(rot)  - rotational entropy
     S(trans)- translational entropy
The entropies will be listed as multiplied by the temperature to get
units of energy

Electronic entropy                ...      0.00065446 Eh      0.41 kcal/mol
Vibrational entropy               ...      0.00584067 Eh      3.67 kcal/mol
Rotational entropy                ...      0.01252644 Eh      7.86 kcal/mol
Translational entropy             ...      0.01864317 Eh     11.70 kcal/mol
-----------------------------------------------------------------------
Final entropy term                ...      0.03766474 Eh     23.63 kcal/mol

In case the symmetry of your molecule has not been determined correctly
or in case you have a reason to use a different symmetry number we print
out the resulting rotational entropy values for sn=1,12:

 non-linear molecules -----------------------------------
|  sn= 1 | S(rot)=       0.01252644 Eh      7.86 kcal/mol|
|  sn= 2 | S(rot)=       0.01187199 Eh      7.45 kcal/mol|
|  sn= 3 | S(rot)=       0.01148915 Eh      7.21 kcal/mol|
|  sn= 4 | S(rot)=       0.01121753 Eh      7.04 kcal/mol|
|  sn= 5 | S(rot)=       0.01100684 Eh      6.91 kcal/mol|
|  sn= 6 | S(rot)=       0.01083470 Eh      6.80 kcal/mol|
|  sn= 7 | S(rot)=       0.01068915 Eh      6.71 kcal/mol|
|  sn= 8 | S(rot)=       0.01056307 Eh      6.63 kcal/mol|
|  sn= 9 | S(rot)=       0.01045187 Eh      6.56 kcal/mol|
|  sn=10 | S(rot)=       0.01035239 Eh      6.50 kcal/mol|
|  sn=11 | S(rot)=       0.01026240 Eh      6.44 kcal/mol|
|  sn=12 | S(rot)=       0.01018024 Eh      6.39 kcal/mol|
 linear molecules ---------------------------------------
|  Dinfh | S(rot)=       0.00752645 Eh      4.72 kcal/mol|
|  Cinfv | S(rot)=       0.00818090 Eh      5.13 kcal/mol|
 --------------------------------------------------------

-------------------
GIBBS FREE ENERGY
-------------------

                             ****ORCA TERMINATED NORMALLY****
TOTAL RUN TIME: 0 days 1 hours 23 minutes 47 seconds 987 msec
