                         Program Version 6.1.0  -  RELEASE   -
|  1> % MaxCore 10000
|  2> ! PAL8
|  3> ! REVDSD-PBEP86-D4/2021 def2-TZVPP def2-TZVPP/c
|  4> ! Opt
|  5> %scf
|  6>    Convergence    VeryTight
|  7> end
|  8> %geom
|  9>    MaxIter        500
| 10> end
| 11> * xyzfile 0 2 path_init_forw.xyz
| 12>
| 13>                          ****END OF INPUT****
 Total Charge           Charge          ....    0
 Multiplicity           Mult            ....    2
 Number of Electrons    NEL             ....   47
MP2 TOTAL ENERGY:     -270.655345400 Eh
Dispersion correction           -0.008180122
FINAL SINGLE POINT ENERGY      -270.663525521857
MP2 TOTAL ENERGY:     -270.656890942 Eh
Dispersion correction           -0.008210332
FINAL SINGLE POINT ENERGY      -270.665101273207
MP2 TOTAL ENERGY:     -270.659857428 Eh
Dispersion correction           -0.008236782
FINAL SINGLE POINT ENERGY      -270.668094209635
FINAL SINGLE POINT ENERGY      -270.671995606468
FINAL SINGLE POINT ENERGY      -270.677071731327
FINAL SINGLE POINT ENERGY      -270.681272279102
FINAL SINGLE POINT ENERGY      -270.685326445820
FINAL SINGLE POINT ENERGY      -270.689725789008
FINAL SINGLE POINT ENERGY      -270.695179300314
FINAL SINGLE POINT ENERGY      -270.701984019361
FINAL SINGLE POINT ENERGY      -270.710610244238
FINAL SINGLE POINT ENERGY      -270.710707836489
FINAL SINGLE POINT ENERGY      -270.710757105389
FINAL SINGLE POINT ENERGY      -270.710767565639
FINAL SINGLE POINT ENERGY      -270.710773046780
FINAL SINGLE POINT ENERGY      -270.710774203769
FINAL SINGLE POINT ENERGY      -270.710774502499
MP2 TOTAL ENERGY:     -270.702768796 Eh
Dispersion correction           -0.008007005
FINAL SINGLE POINT ENERGY      -270.710775800551
MP2 TOTAL ENERGY:     -270.702770410 Eh
Dispersion correction           -0.008007047
FINAL SINGLE POINT ENERGY      -270.710777457020
                    ***********************HURRAY********************

CARTESIAN COORDINATES (ANGSTROEM)
---------------------------------
  C      1.854912    1.376556    0.082456
  C      0.662952    2.302859    0.362522
  C     -0.557366    1.471204   -0.079453
  C     -0.108978    0.058420    0.124665
  C      1.341724   -0.007682    0.479228
  H      2.089721    1.376481   -0.986064
  H      2.756337    1.640686    0.635837
  H      0.735607    3.258694   -0.157424
  H      0.604172    2.502164    1.433951
  H     -1.467520    1.717819    0.475268
  H     -0.785458    1.652452   -1.139625
  H     -0.748058   -0.809247    0.027531
  H      1.873677   -0.819031   -0.028428
  O      1.543728   -0.136880    1.904635
  H      0.971770   -0.843720    2.215552

 Multiplicity           Mult            ....    2
 Number of Electrons    NEL             ....   47
 Basis Dimension        Dim             ....  312

ORBITAL ENERGIES
----------------
                 SPIN UP ORBITALS
  NO   OCC          E(Eh)            E(eV)
   0   1.0000     -19.994651      -544.0821
   1   1.0000     -10.860667      -295.5338
   2   1.0000     -10.820485      -294.4404
   3   1.0000     -10.810243      -294.1617
   4   1.0000     -10.803522      -293.9788
   5   1.0000     -10.802465      -293.9500
   6   1.0000      -1.227111       -33.3914
   7   1.0000      -1.016353       -27.6564
   8   1.0000      -0.873070       -23.7574
   9   1.0000      -0.861591       -23.4451
  10   1.0000      -0.705918       -19.2090
  11   1.0000      -0.693870       -18.8812
  12   1.0000      -0.623260       -16.9598
  13   1.0000      -0.608384       -16.5550
  14   1.0000      -0.555132       -15.1059
  15   1.0000      -0.522197       -14.2097
  16   1.0000      -0.490214       -13.3394
  17   1.0000      -0.479894       -13.0586
  18   1.0000      -0.448065       -12.1925
  19   1.0000      -0.426950       -11.6179
  20   1.0000      -0.422310       -11.4916
  21   1.0000      -0.413193       -11.2436
  22   1.0000      -0.380107       -10.3432
  23   1.0000      -0.291876        -7.9424
  24   0.0000       0.097349         2.6490
  25   0.0000       0.122232         3.3261
  26   0.0000       0.134684         3.6650
  27   0.0000       0.143841         3.9141
  28   0.0000       0.159019         4.3271

                 SPIN DOWN ORBITALS
  NO   OCC          E(Eh)            E(eV)
   0   1.0000     -19.991703      -544.0019
   1   1.0000     -10.862870      -295.5937
   2   1.0000     -10.812326      -294.2183
   3   1.0000     -10.803379      -293.9749
   4   1.0000     -10.802344      -293.9467
   5   1.0000     -10.800470      -293.8957
   6   1.0000      -1.218733       -33.1634
   7   1.0000      -1.002721       -27.2854
   8   1.0000      -0.866279       -23.5727
   9   1.0000      -0.838897       -22.8275
  10   1.0000      -0.701060       -19.0768
  11   1.0000      -0.675211       -18.3734
  12   1.0000      -0.616601       -16.7786
  13   1.0000      -0.600180       -16.3317
  14   1.0000      -0.546689       -14.8762
  15   1.0000      -0.505012       -13.7421
  16   1.0000      -0.480828       -13.0840
  17   1.0000      -0.473153       -12.8751
  18   1.0000      -0.441026       -12.0009
  19   1.0000      -0.424292       -11.5456
  20   1.0000      -0.417589       -11.3632
  21   1.0000      -0.408655       -11.1201
  22   1.0000      -0.374096       -10.1797
  23   0.0000       0.045461         1.2371
  24   0.0000       0.102587         2.7915
  25   0.0000       0.127680         3.4743
  26   0.0000       0.136223         3.7068
  27   0.0000       0.145585         3.9616

MULLIKEN ATOMIC CHARGES AND SPIN DENSITIES
------------------------------------------
   0 C :   -0.146147   -0.002588
   1 C :   -0.168405    0.011355
   2 C :   -0.114652   -0.093723
   3 C :   -0.255627    1.051253
   4 C :    0.161140   -0.059329
   5 H :    0.075879    0.000225
   6 H :    0.091509    0.002351
   7 H :    0.081446   -0.000297
   8 H :    0.089569   -0.000976
   9 H :    0.085743    0.030303
  10 H :    0.082204    0.054567
  11 H :    0.118457   -0.051405
  12 H :    0.075376    0.006849
  13 O :   -0.361951    0.047842
  14 H :    0.185459    0.003573
Sum of atomic charges       :   -0.0000000

LOEWDIN ATOMIC CHARGES AND SPIN DENSITIES
-----------------------------------------
   0 C :   -0.008870    0.003046
   1 C :   -0.008972    0.000551
   2 C :   -0.044330    0.063716
   3 C :    0.064883    0.705452
   4 C :   -0.187583    0.062840
   5 H :    0.018514    0.000706
   6 H :    0.016571    0.001757
   7 H :    0.006888   -0.000261
   8 H :    0.016889   -0.000143
   9 H :    0.016275    0.017915
  10 H :    0.021391    0.031877
  11 H :   -0.025915    0.049762
  12 H :    0.004578    0.005983
  13 O :    0.257728    0.049631
  14 H :   -0.148051    0.007167

  Mayer bond orders larger than 0.100000
B(  0-C ,  1-C ) :   0.9277 B(  0-C ,  4-C ) :   0.9017 B(  0-C ,  5-H ) :   0.9691
B(  0-C ,  6-H ) :   0.9657 B(  1-C ,  2-C ) :   0.9263 B(  1-C ,  7-H ) :   0.9759
B(  1-C ,  8-H ) :   0.9670 B(  2-C ,  3-C ) :   0.9611 B(  2-C ,  9-H ) :   0.9627
B(  2-C , 10-H ) :   0.9527 B(  3-C ,  4-C ) :   0.9872 B(  3-C , 11-H ) :   0.9622
B(  4-C , 12-H ) :   0.9787 B(  4-C , 13-O ) :   0.9758 B( 13-O , 14-H ) :   0.9806

MP2 TOTAL ENERGY:     -270.702771616 Eh
Dispersion correction           -0.008006840
FINAL SINGLE POINT ENERGY      -270.710778456366

DIPOLE MOMENT
-------------

Method             : MP2
Type of density    : Electron Density
Multiplicity       :   2
Level              : Relaxed density
Irrep              :   0
Energy             :     0.0000000000000000 Eh
Basis              : AO
                                X                 Y                 Z
Electronic contribution:      0.760847218      -2.327037579       1.723820729
Nuclear contribution   :     -1.188764707       2.116934820      -2.081163219
                        -----------------------------------------
Total Dipole Moment    :     -0.427917489      -0.210102759      -0.357342491
                        -----------------------------------------
Magnitude (a.u.)       :      0.595776974
Magnitude (Debye)      :      1.514344720

Rotational constants in cm-1:             0.188835             0.116108             0.092038
Rotational constants in MHz :          5661.137467          3480.841489          2759.218471

                             ****ORCA TERMINATED NORMALLY****
TOTAL RUN TIME: 0 days 0 hours 25 minutes 41 seconds 647 msec
