                         Program Version 6.1.0  -  RELEASE   -
|  1> % MaxCore 10000
|  2> ! PAL8
|  3> ! REVDSD-PBEP86-D4/2021 def2-TZVPP def2-TZVPP/c
|  4> ! Opt
|  5> %scf
|  6>    Convergence    VeryTight
|  7> end
|  8> %geom
|  9>    MaxIter        500
| 10> end
| 11> * xyzfile 0 2 path_init_back.xyz
| 12>
| 13>                          ****END OF INPUT****
 Total Charge           Charge          ....    0
 Multiplicity           Mult            ....    2
 Number of Electrons    NEL             ....   47
MP2 TOTAL ENERGY:     -270.654870989 Eh
Dispersion correction           -0.008061759
FINAL SINGLE POINT ENERGY      -270.662932747988
MP2 TOTAL ENERGY:     -270.655652761 Eh
Dispersion correction           -0.008044312
FINAL SINGLE POINT ENERGY      -270.663697073014
MP2 TOTAL ENERGY:     -270.655768587 Eh
Dispersion correction           -0.008032247
FINAL SINGLE POINT ENERGY      -270.663800834104
FINAL SINGLE POINT ENERGY      -270.664201128001
FINAL SINGLE POINT ENERGY      -270.664386546590
FINAL SINGLE POINT ENERGY      -270.664524242740
FINAL SINGLE POINT ENERGY      -270.664583053988
FINAL SINGLE POINT ENERGY      -270.664616909235
FINAL SINGLE POINT ENERGY      -270.664630496534
FINAL SINGLE POINT ENERGY      -270.664641406793
FINAL SINGLE POINT ENERGY      -270.664724182429
FINAL SINGLE POINT ENERGY      -270.664739637863
FINAL SINGLE POINT ENERGY      -270.664757148904
FINAL SINGLE POINT ENERGY      -270.664779049830
FINAL SINGLE POINT ENERGY      -270.664809143345
FINAL SINGLE POINT ENERGY      -270.664826926817
FINAL SINGLE POINT ENERGY      -270.664839809625
MP2 TOTAL ENERGY:     -270.656877451 Eh
Dispersion correction           -0.007962919
FINAL SINGLE POINT ENERGY      -270.664840369949
MP2 TOTAL ENERGY:     -270.656880930 Eh
Dispersion correction           -0.007962650
FINAL SINGLE POINT ENERGY      -270.664843579938
                    ***********************HURRAY********************

CARTESIAN COORDINATES (ANGSTROEM)
---------------------------------
  C      1.930860    1.428877   -0.092713
  C      0.719316    2.302128    0.302606
  C     -0.527132    1.430301    0.033175
  C      0.030855    0.031907    0.026988
  C      1.373506    0.031292   -0.041167
  H      2.282064    1.651501   -1.107123
  H      2.778791    1.564755    0.580683
  H      0.692349    3.250082   -0.235508
  H      0.774057    2.518483    1.369234
  H     -1.300974    1.566598    0.790521
  H     -0.981156    1.654076   -0.939289
  H     -0.590028   -0.855637    0.015807
  H      1.989309   -0.856776   -0.115407
  O      0.823219    0.040167    2.414598
  H      0.818413   -0.927047    2.390648

 Multiplicity           Mult            ....    2
 Number of Electrons    NEL             ....   47
 Basis Dimension        Dim             ....  312

ORBITAL ENERGIES
----------------
                 SPIN UP ORBITALS
  NO   OCC          E(Eh)            E(eV)
   0   1.0000     -20.044743      -545.4452
   1   1.0000     -10.816423      -294.3298
   2   1.0000     -10.815077      -294.2932
   3   1.0000     -10.805769      -294.0399
   4   1.0000     -10.805749      -294.0394
   5   1.0000     -10.800264      -293.8901
   6   1.0000      -1.219211       -33.1764
   7   1.0000      -1.022911       -27.8348
   8   1.0000      -0.868471       -23.6323
   9   1.0000      -0.862252       -23.4631
  10   1.0000      -0.704672       -19.1751
  11   1.0000      -0.654673       -17.8146
  12   1.0000      -0.611168       -16.6307
  13   1.0000      -0.589754       -16.0480
  14   1.0000      -0.565729       -15.3943
  15   1.0000      -0.534397       -14.5417
  16   1.0000      -0.495044       -13.4708
  17   1.0000      -0.475259       -12.9325
  18   1.0000      -0.447907       -12.1882
  19   1.0000      -0.438938       -11.9441
  20   1.0000      -0.433938       -11.8080
  21   1.0000      -0.427032       -11.6201
  22   1.0000      -0.422184       -11.4882
  23   1.0000      -0.298333        -8.1180
  24   0.0000       0.093228         2.5369
  25   0.0000       0.100348         2.7306
  26   0.0000       0.123492         3.3604
  27   0.0000       0.143023         3.8919
  28   0.0000       0.147423         4.0116

                 SPIN DOWN ORBITALS
  NO   OCC          E(Eh)            E(eV)
   0   1.0000     -20.010934      -544.5252
   1   1.0000     -10.814784      -294.2852
   2   1.0000     -10.813479      -294.2497
   3   1.0000     -10.805885      -294.0431
   4   1.0000     -10.805862      -294.0425
   5   1.0000     -10.800250      -293.8897
   6   1.0000      -1.104760       -30.0620
   7   1.0000      -1.018588       -27.7172
   8   1.0000      -0.864622       -23.5276
   9   1.0000      -0.861535       -23.4436
  10   1.0000      -0.703539       -19.1443
  11   1.0000      -0.652653       -17.7596
  12   1.0000      -0.609465       -16.5844
  13   1.0000      -0.575644       -15.6641
  14   1.0000      -0.537896       -14.6369
  15   1.0000      -0.493631       -13.4324
  16   1.0000      -0.474196       -12.9035
  17   1.0000      -0.438367       -11.9286
  18   1.0000      -0.433446       -11.7947
  19   1.0000      -0.427383       -11.6297
  20   1.0000      -0.422185       -11.4882
  21   1.0000      -0.411724       -11.2036
  22   1.0000      -0.307491        -8.3673
  23   0.0000       0.024205         0.6586
  24   0.0000       0.096424         2.6238
  25   0.0000       0.109279         2.9736
  26   0.0000       0.126133         3.4322
  27   0.0000       0.143262         3.8984

MULLIKEN ATOMIC CHARGES AND SPIN DENSITIES
------------------------------------------
   0 C :   -0.111003   -0.002637
   1 C :   -0.166063   -0.001553
   2 C :   -0.110807   -0.002825
   3 C :   -0.140204    0.070813
   4 C :   -0.139202    0.069349
   5 H :    0.082041    0.002316
   6 H :    0.085356    0.003716
   7 H :    0.085884   -0.000454
   8 H :    0.099901   -0.000138
   9 H :    0.085184    0.003756
  10 H :    0.081908    0.002362
  11 H :    0.112194   -0.003939
  12 H :    0.112421   -0.003803
  13 O :   -0.289074    0.876952
  14 H :    0.211465   -0.013915
Sum of atomic charges       :    0.0000000

LOEWDIN ATOMIC CHARGES AND SPIN DENSITIES
-----------------------------------------
   0 C :   -0.019389    0.002966
   1 C :    0.000741   -0.000516
   2 C :   -0.019481    0.002980
   3 C :    0.002949    0.064660
   4 C :    0.003025    0.063897
   5 H :    0.016231    0.001286
   6 H :    0.016957    0.001231
   7 H :    0.005248   -0.000185
   8 H :    0.017933    0.000088
   9 H :    0.016984    0.001245
  10 H :    0.016159    0.001301
  11 H :    0.001154    0.003454
  12 H :    0.001211    0.003410
  13 O :    0.124694    0.808949
  14 H :   -0.184415    0.045232

  Mayer bond orders larger than 0.100000
B(  0-C ,  1-C ) :   0.9229 B(  0-C ,  4-C ) :   0.9409 B(  0-C ,  5-H ) :   0.9574
B(  0-C ,  6-H ) :   0.9643 B(  1-C ,  2-C ) :   0.9233 B(  1-C ,  7-H ) :   0.9749
B(  1-C ,  8-H ) :   0.9704 B(  2-C ,  3-C ) :   0.9408 B(  2-C ,  9-H ) :   0.9641
B(  2-C , 10-H ) :   0.9574 B(  3-C ,  4-C ) :   1.6987 B(  3-C , 11-H ) :   0.9564
B(  3-C , 13-O ) :   0.1194 B(  4-C , 12-H ) :   0.9561 B(  4-C , 13-O ) :   0.1194
B( 13-O , 14-H ) :   0.9786

MP2 TOTAL ENERGY:     -270.656880068 Eh
Dispersion correction           -0.007963500
FINAL SINGLE POINT ENERGY      -270.664843568091

DIPOLE MOMENT
-------------

Method             : MP2
Type of density    : Electron Density
Multiplicity       :   2
Level              : Relaxed density
Irrep              :   0
Energy             :     0.0000000000000000 Eh
Basis              : AO
                                X                 Y                 Z
Electronic contribution:      0.069782989      -2.134805492       1.395270295
Nuclear contribution   :     -0.090315148       1.718072978      -1.771780155
                        -----------------------------------------
Total Dipole Moment    :     -0.020532159      -0.416732514      -0.376509860
                        -----------------------------------------
Magnitude (a.u.)       :      0.562002876
Magnitude (Debye)      :      1.428497786

Rotational constants in cm-1:             0.145488             0.103775             0.096138
Rotational constants in MHz :          4361.631449          3111.081549          2882.133376

                             ****ORCA TERMINATED NORMALLY****
TOTAL RUN TIME: 0 days 0 hours 28 minutes 5 seconds 985 msec
