                         Program Version 6.1.0  -  RELEASE   -
|  1> % MaxCore 10000
|  2> ! PAL8
|  3> ! REVDSD-PBEP86-D4/2021 def2-TZVPP def2-TZVPP/c
|  4> ! OptTS
|  5> ! NumFreq
|  6> %geom
|  7>    Calc_Hess true
|  8>    NumHess   true
|  9> end
| 10> * xyzfile 0 2 guess.xyz
| 11>
| 12>                          ****END OF INPUT****
 Total Charge           Charge          ....    0
 Multiplicity           Mult            ....    2
 Number of Electrons    NEL             ....   33
 Basis Dimension        Dim             ....  222

ORBITAL ENERGIES
----------------
                 SPIN UP ORBITALS
  NO   OCC          E(Eh)            E(eV)
   0   1.0000     -20.045825      -545.4746
   1   1.0000     -10.829316      -294.6807
   2   1.0000     -10.814478      -294.2769
   3   1.0000     -10.809970      -294.1542
   4   1.0000      -1.219671       -33.1889
   5   1.0000      -0.971265       -26.4295
   6   1.0000      -0.843859       -22.9626
   7   1.0000      -0.694255       -18.8916
   8   1.0000      -0.584658       -15.9093
   9   1.0000      -0.579546       -15.7702
  10   1.0000      -0.546196       -14.8628
  11   1.0000      -0.526171       -14.3178
  12   1.0000      -0.513357       -13.9691
  13   1.0000      -0.471274       -12.8240
  14   1.0000      -0.452361       -12.3094
  15   1.0000      -0.443194       -12.0599
  16   1.0000      -0.321375        -8.7451
  17   0.0000       0.091361         2.4861
  18   0.0000       0.099702         2.7130
  19   0.0000       0.133581         3.6349
  20   0.0000       0.146237         3.9793
  21   0.0000       0.154548         4.2055

                 SPIN DOWN ORBITALS
  NO   OCC          E(Eh)            E(eV)
   0   1.0000     -20.012455      -544.5666
   1   1.0000     -10.822698      -294.5006
   2   1.0000     -10.818397      -294.3836
   3   1.0000     -10.810595      -294.1712
   4   1.0000      -1.105326       -30.0775
   5   1.0000      -0.962066       -26.1791
   6   1.0000      -0.847405       -23.0591
   7   1.0000      -0.688279       -18.7290
   8   1.0000      -0.582842       -15.8600
   9   1.0000      -0.548657       -14.9297
  10   1.0000      -0.522683       -14.2229
  11   1.0000      -0.511185       -13.9100
  12   1.0000      -0.470085       -12.7917
  13   1.0000      -0.445645       -12.1266
  14   1.0000      -0.412979       -11.2377
  15   1.0000      -0.335220        -9.1218
  16   0.0000       0.016554         0.4504
  17   0.0000       0.095614         2.6018
  18   0.0000       0.111335         3.0296
  19   0.0000       0.136454         3.7131
  20   0.0000       0.149546         4.0694

MULLIKEN ATOMIC CHARGES AND SPIN DENSITIES
------------------------------------------
   0 C :   -0.160717    0.002071
   1 H :    0.114605    0.005493
   2 C :   -0.187168    0.128133
   3 H :    0.118956   -0.013420
   4 H :    0.109467   -0.006524
   5 C :   -0.210020    0.010281
   6 H :    0.093949   -0.001156
   7 H :    0.089803    0.000887
   8 H :    0.099609   -0.001056
   9 O :   -0.289740    0.889874
  10 H :    0.221254   -0.014584
Sum of atomic charges       :    0.0000000

LOEWDIN ATOMIC CHARGES AND SPIN DENSITIES
-----------------------------------------
   0 C :   -0.029470    0.033884
   1 H :    0.006093    0.003298
   2 C :    0.026616    0.085751
   3 H :   -0.000111    0.002726
   4 H :    0.003644    0.003416
   5 C :    0.000033    0.004879
   6 H :    0.019133   -0.000195
   7 H :    0.014710    0.000862
   8 H :    0.017910    0.000581
   9 O :    0.123813    0.821245
  10 H :   -0.182370    0.043554

  Mayer bond orders larger than 0.100000
B(  0-C ,  1-H ) :   0.9604 B(  0-C ,  2-C ) :   1.7940 B(  0-C ,  5-C ) :   0.9293
B(  2-C ,  3-H ) :   0.9677 B(  2-C ,  4-H ) :   0.9715 B(  5-C ,  6-H ) :   0.9646
B(  5-C ,  7-H ) :   0.9525 B(  5-C ,  8-H ) :   0.9556 B(  9-O , 10-H ) :   0.9768

MP2 TOTAL ENERGY:     -193.359654827 Eh
Dispersion correction           -0.004009288
FINAL SINGLE POINT ENERGY      -193.363664114786

VIBRATIONAL FREQUENCIES
-----------------------

Scaling factor for frequencies =  1.000000000  (already applied!)

     0:       0.00 cm**-1
     1:       0.00 cm**-1
     2:       0.00 cm**-1
     3:       0.00 cm**-1
     4:       0.00 cm**-1
     5:       0.00 cm**-1
     6:    -199.92 cm**-1  ***imaginary mode***
     7:     -85.12 cm**-1  ***imaginary mode***
     8:      79.77 cm**-1
     9:     172.39 cm**-1
    10:     213.57 cm**-1
    11:     418.38 cm**-1
    12:     612.60 cm**-1
    13:     762.43 cm**-1
    14:     936.47 cm**-1
    15:     940.53 cm**-1
    16:     978.04 cm**-1
    17:    1029.95 cm**-1
    18:    1078.11 cm**-1
    19:    1202.70 cm**-1
    20:    1323.55 cm**-1
    21:    1424.01 cm**-1
    22:    1457.90 cm**-1
    23:    1482.63 cm**-1
    24:    1500.74 cm**-1
    25:    1736.37 cm**-1
    26:    3037.00 cm**-1
    27:    3119.44 cm**-1
    28:    3167.58 cm**-1
    29:    3185.74 cm**-1
    30:    3204.65 cm**-1
    31:    3296.00 cm**-1
    32:    3787.51 cm**-1

IR SPECTRUM
-----------

 Mode   freq       eps      Int      T**2         TX        TY        TZ
       cm**-1   L/(mol*cm) km/mol    a.u.
----------------------------------------------------------------------------
  8:     79.77   0.000208    1.05  0.000814  ( 0.023531 -0.016106 -0.000651)
  9:    172.39   0.006728   34.00  0.012180  (-0.099677  0.027499 -0.038575)
 10:    213.57   0.004347   21.97  0.006352  (-0.070634  0.019697 -0.031226)
 11:    418.38   0.000306    1.55  0.000229  ( 0.014849  0.001994  0.002012)
 12:    612.60   0.001495    7.55  0.000761  ( 0.002504 -0.027337  0.002806)
 13:    762.43   0.023416  118.33  0.009584  (-0.002722  0.094485  0.025482)
 14:    936.47   0.002243   11.33  0.000747  ( 0.021171 -0.011186 -0.013191)
 15:    940.53   0.000501    2.53  0.000166  (-0.005729  0.011421 -0.001681)
 16:    978.04   0.018173   91.84  0.005799  (-0.007427  0.075554  0.005911)
 17:   1029.95   0.001661    8.39  0.000503  ( 0.000178  0.022408  0.000996)
 18:   1078.11   0.000978    4.94  0.000283  ( 0.000044 -0.016812  0.000691)
 19:   1202.70   0.000125    0.63  0.000033  (-0.004246  0.003802  0.000229)
 20:   1323.55   0.000897    4.53  0.000211  (-0.000033 -0.013998 -0.003940)
 21:   1424.01   0.000491    2.48  0.000108  ( 0.003993  0.006859  0.006683)
 22:   1457.90   0.000293    1.48  0.000063  ( 0.005179 -0.004841  0.003545)
 23:   1482.63   0.001770    8.94  0.000372  (-0.002902 -0.018281  0.005467)
 24:   1500.74   0.003472   17.55  0.000722  ( 0.016389 -0.003554 -0.020993)
 25:   1736.37   0.015343   77.54  0.002757  (-0.033527  0.039564  0.008248)
 26:   3037.00   0.004022   20.33  0.000413  ( 0.018821 -0.007685 -0.000057)
 27:   3119.44   0.002731   13.80  0.000273  (-0.007413 -0.014684 -0.001619)
 28:   3167.58   0.000167    0.85  0.000016  ( 0.002133  0.003455 -0.000077)
 29:   3185.74   0.004664   23.57  0.000457  ( 0.002038  0.002152 -0.021167)
 30:   3204.65   0.001449    7.33  0.000141  ( 0.002599  0.009166  0.007098)
 31:   3296.00   0.001104    5.58  0.000105  (-0.005786  0.000919 -0.008379)
 32:   3787.51   0.002302   11.63  0.000190  ( 0.000838  0.011520 -0.007499)

--------------------------
THERMOCHEMISTRY AT 298.15K
--------------------------

Temperature         ...   298.15 K
Pressure            ...     1.00 atm
Total Mass          ...    59.09 AMU
Quasi RRHO          ...     True
Cut-Off Frequency   ...     1.00 cm^-1

Throughout the following assumptions are being made:
  (1) The electronic state is orbitally nondegenerate
      but the spin degeneracy is treated
  (2) There are no thermally accessible electronically excited states
  (3) Hindered rotations indicated by low frequency modes are not
      treated as such but are treated as vibrations and this may
      cause some error
  (4) All equations used are the standard statistical mechanics
      equations for an ideal gas
  (5) All vibrations are strictly harmonic

freq.      79.77  E(vib)   ...       0.49
freq.     172.39  E(vib)   ...       0.38
freq.     213.57  E(vib)   ...       0.34
freq.     418.38  E(vib)   ...       0.18
freq.     612.60  E(vib)   ...       0.10
freq.     762.43  E(vib)   ...       0.06
freq.     936.47  E(vib)   ...       0.03
freq.     940.53  E(vib)   ...       0.03
freq.     978.04  E(vib)   ...       0.03
freq.    1029.95  E(vib)   ...       0.02
freq.    1078.11  E(vib)   ...       0.02
freq.    1202.70  E(vib)   ...       0.01
freq.    1323.55  E(vib)   ...       0.01
freq.    1424.01  E(vib)   ...       0.00
freq.    1457.90  E(vib)   ...       0.00
freq.    1482.63  E(vib)   ...       0.00
freq.    1500.74  E(vib)   ...       0.00
freq.    1736.37  E(vib)   ...       0.00
freq.    3037.00  E(vib)   ...       0.00
freq.    3119.44  E(vib)   ...       0.00
freq.    3167.58  E(vib)   ...       0.00
freq.    3185.74  E(vib)   ...       0.00
freq.    3204.65  E(vib)   ...       0.00
freq.    3296.00  E(vib)   ...       0.00
freq.    3787.51  E(vib)   ...       0.00

------------
INNER ENERGY
------------

The inner energy is: U= E(el) + E(ZPE) + E(vib) + E(rot) + E(trans)
    E(el)   - is the total energy from the electronic structure calculation
              = E(kin-el) + E(nuc-el) + E(el-el) + E(nuc-nuc)
    E(ZPE)  - the the zero temperature vibrational energy from the frequency calculation
    E(vib)  - the the finite temperature correction to E(ZPE) due to population
              of excited vibrational states
    E(rot)  - is the rotational thermal energy
    E(trans)- is the translational thermal energy

Summary of contributions to the inner energy U:
Electronic energy                ...   -193.36366411 Eh
Zero point energy                ...      0.09146401 Eh      57.39 kcal/mol
Thermal vibrational correction   ...      0.00269902 Eh       1.69 kcal/mol
Thermal rotational correction    ...      0.00141627 Eh       0.89 kcal/mol
Thermal translational correction ...      0.00141627 Eh       0.89 kcal/mol
-----------------------------------------------------------------------
Total thermal energy                   -193.26666854 Eh

Summary of corrections to the electronic energy:
(perhaps to be used in another calculation)
Total thermal correction                  0.00553156 Eh       3.47 kcal/mol
Non-thermal (ZPE) correction              0.09146401 Eh      57.39 kcal/mol
-----------------------------------------------------------------------
Total correction                          0.09699557 Eh      60.87 kcal/mol

--------
ENTHALPY
--------

The enthalpy is H = U + kB*T
                kB is Boltzmann's constant
Total thermal energy              ...   -193.26666854 Eh
Thermal Enthalpy correction       ...      0.00094421 Eh       0.59 kcal/mol
-----------------------------------------------------------------------
Total Enthalpy                    ...   -193.26572433 Eh

Note: Only C1 symmetry has been detected, increase convergence thresholds
      if your molecule has a higher symmetry. Symmetry factor of 1.0 is
      used for the rotational entropy correction.

Note: Rotational entropy computed according to Herzberg
Infrared and Raman Spectra, Chapter V,1, Van Nostrand Reinhold, 1945
Point Group:  C1, Symmetry Number:   1
Rotational constants in cm-1:     0.371359     0.145705     0.118918

Vibrational entropy computed according to the QRRHO of S. Grimme
Chem.Eur.J. 2012 18 9955 using a reference frequency of 100.0 cm-1

-------
ENTROPY
-------

The entropy contributions are T*S = T*(S(el)+S(vib)+S(rot)+S(trans))
     S(el)   - electronic entropy
     S(vib)  - vibrational entropy
     S(rot)  - rotational entropy
     S(trans)- translational entropy
The entropies will be listed as multiplied by the temperature to get
units of energy

Electronic entropy                ...      0.00065446 Eh      0.41 kcal/mol
Vibrational entropy               ...      0.00471166 Eh      2.96 kcal/mol
Rotational entropy                ...      0.01189301 Eh      7.46 kcal/mol
Translational entropy             ...      0.01812608 Eh     11.37 kcal/mol
-----------------------------------------------------------------------
Final entropy term                ...      0.03538521 Eh     22.20 kcal/mol

In case the symmetry of your molecule has not been determined correctly
or in case you have a reason to use a different symmetry number we print
out the resulting rotational entropy values for sn=1,12:

 non-linear molecules -----------------------------------
|  sn= 1 | S(rot)=       0.01189301 Eh      7.46 kcal/mol|
|  sn= 2 | S(rot)=       0.01123856 Eh      7.05 kcal/mol|
|  sn= 3 | S(rot)=       0.01085573 Eh      6.81 kcal/mol|
|  sn= 4 | S(rot)=       0.01058410 Eh      6.64 kcal/mol|
|  sn= 5 | S(rot)=       0.01037341 Eh      6.51 kcal/mol|
|  sn= 6 | S(rot)=       0.01020127 Eh      6.40 kcal/mol|
|  sn= 7 | S(rot)=       0.01005572 Eh      6.31 kcal/mol|
|  sn= 8 | S(rot)=       0.00992964 Eh      6.23 kcal/mol|
|  sn= 9 | S(rot)=       0.00981844 Eh      6.16 kcal/mol|
|  sn=10 | S(rot)=       0.00971896 Eh      6.10 kcal/mol|
|  sn=11 | S(rot)=       0.00962897 Eh      6.04 kcal/mol|
|  sn=12 | S(rot)=       0.00954681 Eh      5.99 kcal/mol|
 linear molecules ---------------------------------------
|  Dinfh | S(rot)=       0.00733627 Eh      4.60 kcal/mol|
|  Cinfv | S(rot)=       0.00799072 Eh      5.01 kcal/mol|
 --------------------------------------------------------

-------------------
GIBBS FREE ENERGY
-------------------

The Gibbs free energy is G = H - T*S

Total enthalpy                    ...   -193.26572433 Eh
Total entropy correction          ...     -0.03538521 Eh    -22.20 kcal/mol
-----------------------------------------------------------------------
Final Gibbs free energy         ...   -193.30110954 Eh

For completeness - the Gibbs free energy minus the electronic energy
G-E(el)                           ...      0.06255457 Eh     39.25 kcal/mol

MP2 TOTAL ENERGY:     -193.360403415 Eh
Dispersion correction           -0.003968268
FINAL SINGLE POINT ENERGY      -193.364371682739
MP2 TOTAL ENERGY:     -193.360967697 Eh
Dispersion correction           -0.003934891
FINAL SINGLE POINT ENERGY      -193.364902587361
FINAL SINGLE POINT ENERGY      -193.365148145193
FINAL SINGLE POINT ENERGY      -193.365261858238
FINAL SINGLE POINT ENERGY      -193.365391033494
FINAL SINGLE POINT ENERGY      -193.365485686681
FINAL SINGLE POINT ENERGY      -193.365492917272
FINAL SINGLE POINT ENERGY      -193.365366534395
FINAL SINGLE POINT ENERGY      -193.365582477502
FINAL SINGLE POINT ENERGY      -193.365697642668
FINAL SINGLE POINT ENERGY      -193.365678553929
FINAL SINGLE POINT ENERGY      -193.365659713113
FINAL SINGLE POINT ENERGY      -193.365665329670
FINAL SINGLE POINT ENERGY      -193.365675661549
FINAL SINGLE POINT ENERGY      -193.365680982834
FINAL SINGLE POINT ENERGY      -193.365692814188
MP2 TOTAL ENERGY:     -193.361822447 Eh
Dispersion correction           -0.003877354
FINAL SINGLE POINT ENERGY      -193.365699800748
MP2 TOTAL ENERGY:     -193.361835275 Eh
Dispersion correction           -0.003869348
FINAL SINGLE POINT ENERGY      -193.365704623102

CARTESIAN COORDINATES (ANGSTROEM)
---------------------------------
  C      0.030459    0.040237   -0.005034
  H      0.020773    0.036627    1.083316
  C      1.201565    0.141922   -0.636943
  H      2.135368    0.211259   -0.091068
  H      1.256834    0.156504   -1.719814
  C     -1.298861   -0.055542   -0.688257
  H     -1.182700   -0.050029   -1.772295
  H     -1.818383   -0.974609   -0.405756
  H     -1.943345    0.779514   -0.400711
  O      0.981492   -2.561136   -1.067684
  H      0.820176   -2.575389   -0.111766

MP2 TOTAL ENERGY:     -193.361847616 Eh
Dispersion correction           -0.003863414
FINAL SINGLE POINT ENERGY      -193.365711029568
                             ****ORCA TERMINATED NORMALLY****
TOTAL RUN TIME: 0 days 0 hours 30 minutes 20 seconds 386 msec
