                         Program Version 6.1.0  -  RELEASE   -
|  1> % MaxCore 10000
|  2> ! PAL8
|  3> ! REVDSD-PBEP86-D4/2021 def2-TZVPP def2-TZVPP/c
|  4> ! OPT
|  5> * xyzfile 0 1 guess.xyz
|  6>
|  7>                          ****END OF INPUT****
 Total Charge           Charge          ....    0
 Multiplicity           Mult            ....    1
 Number of Electrons    NEL             ....   24
MP2 TOTAL ENERGY:     -117.706810118 Eh
Dispersion correction           -0.003002677
FINAL SINGLE POINT ENERGY      -117.709812794840
MP2 TOTAL ENERGY:     -117.706842047 Eh
Dispersion correction           -0.003005914
FINAL SINGLE POINT ENERGY      -117.709847960480
MP2 TOTAL ENERGY:     -117.706839895 Eh
Dispersion correction           -0.003006255
FINAL SINGLE POINT ENERGY      -117.709846149755
                    ***********************HURRAY********************

CARTESIAN COORDINATES (ANGSTROEM)
---------------------------------
  C     -0.000764    0.000116    0.003160
  C     -0.003312    0.000708    1.335741
  H      0.923644   -0.001549   -0.560345
  H     -0.927001    0.001217   -0.560995
  H      0.947979   -0.000422    1.861458
  C     -1.237522    0.003089    2.185506
  H     -1.264682   -0.874431    2.837025
  H     -2.138592    0.003058    1.570293
  H     -1.262980    0.882631    2.834384

 Multiplicity           Mult            ....    1
 Number of Electrons    NEL             ....   24
 Basis Dimension        Dim             ....  177

ORBITAL ENERGIES
----------------

  NO   OCC          E(Eh)            E(eV)
   0   2.0000     -10.820195      -294.4325
   1   2.0000     -10.808056      -294.1022
   2   2.0000     -10.803560      -293.9798
   3   2.0000      -0.961021       -26.1507
   4   2.0000      -0.840458       -22.8700
   5   2.0000      -0.681827       -18.5535
   6   2.0000      -0.575870       -15.6702
   7   2.0000      -0.522879       -14.2283
   8   2.0000      -0.510770       -13.8988
   9   2.0000      -0.466585       -12.6964
  10   2.0000      -0.437140       -11.8952
  11   2.0000      -0.324297        -8.8246
  12   0.0000       0.097031         2.6404
  13   0.0000       0.114250         3.1089
  14   0.0000       0.146455         3.9852
  15   0.0000       0.155964         4.2440
  16   0.0000       0.183407         4.9908

MULLIKEN ATOMIC CHARGES
-----------------------
   0 C :   -0.204780
   1 C :   -0.106220
   2 H :    0.092621
   3 H :    0.075517
   4 H :    0.090450
   5 C :   -0.211644
   6 H :    0.090728
   7 H :    0.082599
   8 H :    0.090728
Sum of atomic charges:    0.0000000

LOEWDIN ATOMIC CHARGES
----------------------
   0 C :    0.003089
   1 C :   -0.043297
   2 H :   -0.003955
   3 H :   -0.004508
   4 H :    0.007585
   5 C :   -0.002140
   6 H :    0.014218
   7 H :    0.014776
   8 H :    0.014233

  Mayer bond orders larger than 0.100000
B(  0-C ,  1-C ) :   1.8281 B(  0-C ,  2-H ) :   0.9667 B(  0-C ,  3-H ) :   0.9734
B(  1-C ,  4-H ) :   0.9612 B(  1-C ,  5-C ) :   0.9294 B(  5-C ,  6-H ) :   0.9576
B(  5-C ,  7-H ) :   0.9654 B(  5-C ,  8-H ) :   0.9576

MP2 TOTAL ENERGY:     -117.706841389 Eh
Dispersion correction           -0.003005964
FINAL SINGLE POINT ENERGY      -117.709847352548

DIPOLE MOMENT
-------------

Method             : MP2
Type of density    : Electron Density
Multiplicity       :   1
Level              : Relaxed density
Irrep              :   0
Energy             :     0.0000000000000000 Eh
Basis              : AO
                                X                 Y                 Z
Electronic contribution:      0.944545351      -0.001931977      -0.614823106
Nuclear contribution   :     -0.994885137       0.002151742       0.749520746
                        -----------------------------------------
Total Dipole Moment    :     -0.050339786       0.000219766       0.134697640
                        -----------------------------------------
Magnitude (a.u.)       :      0.143797068
Magnitude (Debye)      :      0.365503099

Rotational constants in cm-1:             1.555527             0.311215             0.272369
Rotational constants in MHz :         46633.524447          9329.976030          8165.431377

                             ****ORCA TERMINATED NORMALLY****
TOTAL RUN TIME: 0 days 0 hours 1 minutes 3 seconds 944 msec
