                         Program Version 6.1.0  -  RELEASE   -
|  1> % MaxCore 10000
|  2> ! PAL8
|  3> ! REVDSD-PBEP86-D4/2021 def2-TZVPP def2-TZVPP/c
|  4> ! OPT
|  5> * xyzfile 0 2 guess.xyz
|  6>
|  7>                          ****END OF INPUT****
 Total Charge           Charge          ....    0
 Multiplicity           Mult            ....    2
 Number of Electrons    NEL             ....    9
MP2 TOTAL ENERGY:      -75.651954781 Eh
Dispersion correction           -0.000060540
FINAL SINGLE POINT ENERGY       -75.652015321123
MP2 TOTAL ENERGY:      -75.651962755 Eh
Dispersion correction           -0.000060501
FINAL SINGLE POINT ENERGY       -75.652023256457
                    ***********************HURRAY********************

CARTESIAN COORDINATES (ANGSTROEM)
---------------------------------
  O      0.000000    0.000000    0.000560
  H      0.000000    0.000000    0.970556

 Multiplicity           Mult            ....    2
 Number of Electrons    NEL             ....    9
 Basis Dimension        Dim             ....   45

ORBITAL ENERGIES
----------------
                 SPIN UP ORBITALS
  NO   OCC          E(Eh)            E(eV)
   0   1.0000     -20.077003      -546.3230
   1   1.0000      -1.248114       -33.9629
   2   1.0000      -0.605371       -16.4730
   3   1.0000      -0.567854       -15.4521
   4   1.0000      -0.478666       -13.0252
   5   0.0000       0.093710         2.5500
   6   0.0000       0.478381        13.0174
   7   0.0000       0.482544        13.1307
   8   0.0000       0.498064        13.5530
   9   0.0000       0.516376        14.0513

                 SPIN DOWN ORBITALS
  NO   OCC          E(Eh)            E(eV)
   0   1.0000     -20.042726      -545.3903
   1   1.0000      -1.124172       -30.5903
   2   1.0000      -0.568727       -15.4759
   3   1.0000      -0.440758       -11.9936
   4   0.0000      -0.001719        -0.0468
   5   0.0000       0.100721         2.7408
   6   0.0000       0.485759        13.2182
   7   0.0000       0.511075        13.9071
   8   0.0000       0.527529        14.3548

MULLIKEN ATOMIC CHARGES AND SPIN DENSITIES
------------------------------------------
   0 O :   -0.225028    1.019231
   1 H :    0.225028   -0.019231
Sum of atomic charges       :   -0.0000000

LOEWDIN ATOMIC CHARGES AND SPIN DENSITIES
-----------------------------------------
   0 O :    0.165018    0.946838
   1 H :   -0.165018    0.053162

  Mayer bond orders larger than 0.100000
B(  0-O ,  1-H ) :   0.9842

MP2 TOTAL ENERGY:      -75.651955791 Eh
Dispersion correction           -0.000060502
FINAL SINGLE POINT ENERGY       -75.652016292465

DIPOLE MOMENT
-------------

Method             : MP2
Type of density    : Electron Density
Multiplicity       :   2
Level              : Relaxed density
Irrep              :   0
Energy             :     0.0000000000000000 Eh
Basis              : AO
                                X                 Y                 Z
Electronic contribution:     -0.000000002       0.000000000      -0.183009298
Nuclear contribution   :      0.000000000       0.000000000       0.855240363
                        -----------------------------------------
Total Dipole Moment    :     -0.000000002       0.000000000       0.672231064
                        -----------------------------------------
Magnitude (a.u.)       :      0.672231064
Magnitude (Debye)      :      1.708675575

Rotational constants in cm-1:             0.000000            18.894294            18.894294
Rotational constants in MHz :             0.000000        566436.677021        566436.677021

                             ****ORCA TERMINATED NORMALLY****
TOTAL RUN TIME: 0 days 0 hours 0 minutes 31 seconds 757 msec
