                         Program Version 6.1.0  -  RELEASE   -
|  1> ! wB97X-3c
|  2> ! OPT
|  3> * xyz 0 2
|  4>  O                  0.00000000    0.00000000    0.10829200
|  5>  H                  0.00000000    0.00000000   -0.86633400
|  6> **                         ****END OF INPUT****
 Total Charge           Charge          ....    0
 Multiplicity           Mult            ....    2
 Number of Electrons    NEL             ....    7
Dispersion correction           -0.000097962
FINAL SINGLE POINT ENERGY       -16.570294212948
Dispersion correction             ... done (  0.0 sec)
Dispersion correction           -0.000097759
FINAL SINGLE POINT ENERGY       -16.570307089190
Dispersion correction             ... done (  0.0 sec)
                    ***********************HURRAY********************

CARTESIAN COORDINATES (ANGSTROEM)
---------------------------------
  O      0.000000    0.000000    0.106579
  H      0.000000    0.000000   -0.864621

 Multiplicity           Mult            ....    2
 Number of Electrons    NEL             ....    7
 Basis Dimension        Dim             ....   18

ORBITAL ENERGIES
----------------
                 SPIN UP ORBITALS
  NO   OCC          E(Eh)            E(eV)
   0   1.0000      -1.144374       -31.1400
   1   1.0000      -0.601365       -16.3640
   2   1.0000      -0.540190       -14.6993
   3   1.0000      -0.471101       -12.8193
   4   0.0000       0.066504         1.8097
   5   0.0000       0.455324        12.3900
   6   0.0000       0.541346        14.7308
   7   0.0000       0.574064        15.6211
   8   0.0000       0.615340        16.7443

                 SPIN DOWN ORBITALS
  NO   OCC          E(Eh)            E(eV)
   0   1.0000      -1.071654       -29.1612
   1   1.0000      -0.573191       -15.5973
   2   1.0000      -0.443622       -12.0716
   3   0.0000      -0.073310        -1.9949
   4   0.0000       0.071740         1.9521
   5   0.0000       0.468175        12.7397
   6   0.0000       0.586213        15.9517
   7   0.0000       0.622012        16.9258

MULLIKEN ATOMIC CHARGES AND SPIN POPULATIONS
--------------------------------------------
   0 O :   -0.163135    1.013761
   1 H :    0.163135   -0.013761
Sum of atomic charges         :    0.0000000

LOEWDIN ATOMIC CHARGES AND SPIN POPULATIONS
-------------------------------------------
   0 O :   -0.031570    0.972222
   1 H :    0.031570    0.027778

  Mayer bond orders larger than 0.100000
B(  0-O ,  1-H ) :   1.0891

Dispersion correction           -0.000097771
FINAL SINGLE POINT ENERGY       -16.570307159650

DIPOLE MOMENT
-------------

Method             : SCF
Type of density    : Electron Density
Multiplicity       :   2
Irrep              :   0
Energy             :   -16.5702093882975774 Eh
Basis              : AO
                                X                 Y                 Z
Electronic contribution:     -0.000000000      -0.000000000       0.371675518
Nuclear contribution   :      0.000000000       0.000000000      -1.073856786
                        -----------------------------------------
Total Dipole Moment    :     -0.000000000      -0.000000000      -0.702181268
                        -----------------------------------------
Magnitude (a.u.)       :      0.702181268
Magnitude (Debye)      :      1.784802943

Rotational constants in cm-1:             0.000000            18.847506            18.847506
Rotational constants in MHz :             0.000000        565034.027740        565034.027740

                             ****ORCA TERMINATED NORMALLY****
TOTAL RUN TIME: 0 days 0 hours 0 minutes 7 seconds 863 msec
