                         Program Version 6.1.0  -  RELEASE   -
|  1> !B3LYP cc-pVTZ OPT
|  2> * xyz 0 2
|  3>  O                  0.00000000    0.00000000    0.10829200
|  4>  H                  0.00000000    0.00000000   -0.86633400
|  5> **                         ****END OF INPUT****
 Total Charge           Charge          ....    0
 Multiplicity           Mult            ....    2
 Number of Electrons    NEL             ....    9
FINAL SINGLE POINT ENERGY       -75.730905464811
                    ***********************HURRAY********************

CARTESIAN COORDINATES (ANGSTROEM)
---------------------------------
  O      0.000000    0.000000    0.108336
  H      0.000000    0.000000   -0.866378

 Multiplicity           Mult            ....    2
 Number of Electrons    NEL             ....    9
 Basis Dimension        Dim             ....   44

ORBITAL ENERGIES
----------------
                 SPIN UP ORBITALS
  NO   OCC          E(Eh)            E(eV)
   0   1.0000     -19.192920      -522.2659
   1   1.0000      -1.014202       -27.5978
   2   1.0000      -0.473781       -12.8922
   3   1.0000      -0.413681       -11.2568
   4   1.0000      -0.340629        -9.2690
   5   0.0000       0.031353         0.8532
   6   0.0000       0.369639        10.0584
   7   0.0000       0.518639        14.1129
   8   0.0000       0.530224        14.4281
   9   0.0000       0.565912        15.3992

                 SPIN DOWN ORBITALS
  NO   OCC          E(Eh)            E(eV)
   0   1.0000     -19.167428      -521.5722
   1   1.0000      -0.943360       -25.6701
   2   1.0000      -0.448075       -12.1928
   3   1.0000      -0.314839        -8.5672
   4   0.0000      -0.165995        -4.5170
   5   0.0000       0.038012         1.0344
   6   0.0000       0.375892        10.2285
   7   0.0000       0.526688        14.3319
   8   0.0000       0.576393        15.6844

MULLIKEN ATOMIC CHARGES AND SPIN POPULATIONS
--------------------------------------------
   0 O :   -0.236099    1.014659
   1 H :    0.236099   -0.014659
Sum of atomic charges         :   -0.0000000

LOEWDIN ATOMIC CHARGES AND SPIN POPULATIONS
-------------------------------------------
   0 O :    0.223454    0.945663
   1 H :   -0.223454    0.054337

  Mayer bond orders larger than 0.100000
B(  0-O ,  1-H ) :   1.0188

FINAL SINGLE POINT ENERGY       -75.730904973944

DIPOLE MOMENT
-------------

Method             : SCF
Type of density    : Electron Density
Multiplicity       :   2
Irrep              :   0
Energy             :   -75.7309049739443338 Eh
Basis              : AO
                                X                 Y                 Z
Electronic contribution:     -0.000000000       0.000000000       0.195352814
Nuclear contribution   :      0.000000000       0.000000000      -0.859399785
                        -----------------------------------------
Total Dipole Moment    :     -0.000000000       0.000000000      -0.664046971
                        -----------------------------------------
Magnitude (a.u.)       :      0.664046971
Magnitude (Debye)      :      1.687873264

Rotational constants in cm-1:             0.000000            18.711843            18.711843
Rotational constants in MHz :             0.000000        560966.934555        560966.934555

                             ****ORCA TERMINATED NORMALLY****
TOTAL RUN TIME: 0 days 0 hours 0 minutes 4 seconds 859 msec
