                         Program Version 6.1.0  -  RELEASE   -
|  1> % MaxCore 10000
|  2> ! PAL8
|  3> ! REVDSD-PBEP86-D4/2021 def2-TZVPP def2-TZVPP/c
|  4> ! OptTS
|  5> ! NumFreq
|  6> %geom
|  7>    Calc_Hess true
|  8>    NumHess   true
|  9> end
| 10> * xyzfile 0 2 guess.xyz
| 11>
| 12>                          ****END OF INPUT****
 Total Charge           Charge          ....    0
 Multiplicity           Mult            ....    2
 Number of Electrons    NEL             ....   33
MP2 TOTAL ENERGY:     -193.355815092 Eh
Dispersion correction           -0.004156545
FINAL SINGLE POINT ENERGY      -193.359971637251
MP2 TOTAL ENERGY:     -193.358750796 Eh
Dispersion correction           -0.004125422
FINAL SINGLE POINT ENERGY      -193.362876217431
MP2 TOTAL ENERGY:     -193.359789289 Eh
Dispersion correction           -0.004113298
FINAL SINGLE POINT ENERGY      -193.363902587257
FINAL SINGLE POINT ENERGY      -193.364021687448
FINAL SINGLE POINT ENERGY      -193.362371113011
FINAL SINGLE POINT ENERGY      -193.361939590429
FINAL SINGLE POINT ENERGY      -193.362310740608
FINAL SINGLE POINT ENERGY      -193.362535552032
FINAL SINGLE POINT ENERGY      -193.362604246345
FINAL SINGLE POINT ENERGY      -193.362677332943
FINAL SINGLE POINT ENERGY      -193.362670986695
FINAL SINGLE POINT ENERGY      -193.362681856629
FINAL SINGLE POINT ENERGY      -193.362686045811
FINAL SINGLE POINT ENERGY      -193.362676634558
MP2 TOTAL ENERGY:     -193.358432748 Eh
Dispersion correction           -0.004249814
FINAL SINGLE POINT ENERGY      -193.362682561852
MP2 TOTAL ENERGY:     -193.358436519 Eh
Dispersion correction           -0.004247914
FINAL SINGLE POINT ENERGY      -193.362684433740
                    ***********************HURRAY********************

CARTESIAN COORDINATES (ANGSTROEM)
---------------------------------
  C      0.019584   -0.062377   -0.028114
  H     -0.058489    0.125771    1.035804
  C      1.240837   -0.025446   -0.597890
  H      2.135792    0.076458   -0.000179
  H      1.358348   -0.133570   -1.670376
  C     -1.262547   -0.083828   -0.799264
  H     -1.092849   -0.362207   -1.840419
  H     -1.962688   -0.789466   -0.354036
  H     -1.723558    0.907702   -0.779676
  O      0.255302   -2.097931    0.464985
  H      0.675150   -2.435109   -0.339474

 Multiplicity           Mult            ....    2
 Number of Electrons    NEL             ....   33
 Basis Dimension        Dim             ....  222

ORBITAL ENERGIES
----------------
                 SPIN UP ORBITALS
  NO   OCC          E(Eh)            E(eV)
   0   1.0000     -20.029797      -545.0385
   1   1.0000     -10.838914      -294.9418
   2   1.0000     -10.817070      -294.3474
   3   1.0000     -10.810082      -294.1573
   4   1.0000      -1.207493       -32.8576
   5   1.0000      -0.971008       -26.4225
   6   1.0000      -0.853333       -23.2204
   7   1.0000      -0.696857       -18.9624
   8   1.0000      -0.589894       -16.0518
   9   1.0000      -0.563270       -15.3274
  10   1.0000      -0.542352       -14.7581
  11   1.0000      -0.532502       -14.4901
  12   1.0000      -0.496866       -13.5204
  13   1.0000      -0.471112       -12.8196
  14   1.0000      -0.447762       -12.1842
  15   1.0000      -0.432486       -11.7685
  16   1.0000      -0.324788        -8.8379
  17   0.0000       0.094917         2.5828
  18   0.0000       0.110330         3.0022
  19   0.0000       0.138203         3.7607
  20   0.0000       0.145210         3.9514
  21   0.0000       0.156980         4.2716

                 SPIN DOWN ORBITALS
  NO   OCC          E(Eh)            E(eV)
   0   1.0000     -19.998665      -544.1913
   1   1.0000     -10.844238      -295.0867
   2   1.0000     -10.809552      -294.1429
   3   1.0000     -10.806885      -294.0703
   4   1.0000      -1.106854       -30.1190
   5   1.0000      -0.965805       -26.2809
   6   1.0000      -0.840153       -22.8617
   7   1.0000      -0.692904       -18.8549
   8   1.0000      -0.584950       -15.9173
   9   1.0000      -0.540569       -14.7096
  10   1.0000      -0.529029       -14.3956
  11   1.0000      -0.514613       -14.0033
  12   1.0000      -0.469745       -12.7824
  13   1.0000      -0.446298       -12.1444
  14   1.0000      -0.401076       -10.9138
  15   1.0000      -0.337180        -9.1751
  16   0.0000       0.021072         0.5734
  17   0.0000       0.100115         2.7243
  18   0.0000       0.117550         3.1987
  19   0.0000       0.140843         3.8325
  20   0.0000       0.147042         4.0012

MULLIKEN ATOMIC CHARGES AND SPIN DENSITIES
------------------------------------------
   0 C :    0.014256    0.003434
   1 H :    0.130640    0.000628
   2 C :   -0.264187    0.295984
   3 H :    0.117903   -0.006780
   4 H :    0.103242   -0.011549
   5 C :   -0.247963   -0.011516
   6 H :    0.076300    0.000183
   7 H :    0.118882    0.000940
   8 H :    0.097106   -0.001930
   9 O :   -0.348825    0.741528
  10 H :    0.202645   -0.010921
Sum of atomic charges       :    0.0000000

LOEWDIN ATOMIC CHARGES AND SPIN DENSITIES
-----------------------------------------
   0 C :   -0.024344    0.041710
   1 H :    0.022160   -0.001264
   2 C :    0.041746    0.215030
   3 H :   -0.000039    0.014049
   4 H :   -0.003832    0.015046
   5 C :    0.005088   -0.005002
   6 H :    0.015483   -0.000198
   7 H :    0.019850   -0.000166
   8 H :    0.017451   -0.001571
   9 O :    0.095593    0.684024
  10 H :   -0.189156    0.038343

  Mayer bond orders larger than 0.100000
B(  0-C ,  1-H ) :   0.9502 B(  0-C ,  2-C ) :   1.6329 B(  0-C ,  5-C ) :   0.9394
B(  0-C ,  9-O ) :   0.2021 B(  2-C ,  3-H ) :   0.9683 B(  2-C ,  4-H ) :   0.9743
B(  2-C ,  9-O ) :   0.1846 B(  5-C ,  6-H ) :   0.9620 B(  5-C ,  7-H ) :   0.9581
B(  5-C ,  8-H ) :   0.9487 B(  9-O , 10-H ) :   0.9824

MP2 TOTAL ENERGY:     -193.358440929 Eh
Dispersion correction           -0.004248988
FINAL SINGLE POINT ENERGY      -193.362689916751

DIPOLE MOMENT
-------------

Method             : MP2
Type of density    : Electron Density
Multiplicity       :   2
Level              : Relaxed density
Irrep              :   0
Energy             :     0.0000000000000000 Eh
Basis              : AO
                                X                 Y                 Z
Electronic contribution:      1.070213154      -1.392016536       1.578389260
Nuclear contribution   :     -1.000314654       1.781610497      -2.175792144
                        -----------------------------------------
Total Dipole Moment    :      0.069898500       0.389593961      -0.597402883
                        -----------------------------------------
Magnitude (a.u.)       :      0.716630630
Magnitude (Debye)      :      1.821530302

VIBRATIONAL FREQUENCIES
-----------------------

Scaling factor for frequencies =  1.000000000  (already applied!)

     0:       0.00 cm**-1
     1:       0.00 cm**-1
     2:       0.00 cm**-1
     3:       0.00 cm**-1
     4:       0.00 cm**-1
     5:       0.00 cm**-1
     6:    -397.44 cm**-1  ***imaginary mode***
     7:     127.61 cm**-1
     8:     190.12 cm**-1
     9:     258.29 cm**-1
    10:     280.66 cm**-1
    11:     429.92 cm**-1
    12:     604.53 cm**-1
    13:     713.78 cm**-1
    14:     927.18 cm**-1
    15:     935.60 cm**-1
    16:     954.66 cm**-1
    17:    1040.69 cm**-1
    18:    1072.40 cm**-1
    19:    1211.22 cm**-1
    20:    1334.65 cm**-1
    21:    1415.27 cm**-1
    22:    1464.85 cm**-1
    23:    1495.88 cm**-1
    24:    1509.15 cm**-1
    25:    1666.62 cm**-1
    26:    3049.72 cm**-1
    27:    3117.59 cm**-1
    28:    3146.45 cm**-1
    29:    3158.53 cm**-1
    30:    3202.07 cm**-1
    31:    3260.58 cm**-1
    32:    3775.22 cm**-1

IR SPECTRUM
-----------

 Mode   freq       eps      Int      T**2         TX        TY        TZ
       cm**-1   L/(mol*cm) km/mol    a.u.
----------------------------------------------------------------------------
  7:    127.61   0.008760   44.27  0.021423  ( 0.134678  0.000662  0.057310)
  8:    190.12   0.001616    8.17  0.002653  ( 0.042918 -0.024046  0.015257)
  9:    258.29   0.006094   30.80  0.007363  (-0.074118 -0.028644 -0.032388)
 10:    280.66   0.001637    8.27  0.001820  ( 0.035152 -0.005400  0.023560)
 11:    429.92   0.000224    1.13  0.000162  ( 0.002428 -0.011789  0.004179)
 12:    604.53   0.002809   14.20  0.001450  ( 0.002898 -0.037101  0.008071)
 13:    713.78   0.020535  103.78  0.008978  ( 0.004816  0.089902 -0.029535)
 14:    927.18   0.005160   26.07  0.001737  ( 0.005895 -0.041213  0.001813)
 15:    935.60   0.001323    6.69  0.000441  ( 0.006963  0.019053 -0.005454)
 16:    954.66   0.000399    2.02  0.000131  ( 0.010096  0.001732 -0.005061)
 17:   1040.69   0.000557    2.82  0.000167  (-0.006415  0.011214 -0.000391)
 18:   1072.40   0.008568   43.30  0.002493  (-0.001934 -0.049000  0.009402)
 19:   1211.22   0.000202    1.02  0.000052  (-0.005619  0.003953 -0.002174)
 20:   1334.65   0.002226   11.25  0.000520  ( 0.007847 -0.020847  0.004925)
 21:   1415.27   0.001136    5.74  0.000251  ( 0.005742  0.014356  0.003385)
 22:   1464.85   0.000915    4.62  0.000195  ( 0.007868 -0.008771  0.007485)
 23:   1495.88   0.002390   12.08  0.000499  (-0.011729 -0.011301  0.015277)
 24:   1509.15   0.002682   13.55  0.000555  (-0.012306  0.016096  0.012004)
 25:   1666.62   0.023557  119.05  0.004411  (-0.031397  0.056317 -0.015925)
 26:   3049.72   0.003331   16.83  0.000341  (-0.014597  0.006669 -0.009125)
 27:   3117.59   0.002258   11.41  0.000226  (-0.001561  0.011350  0.009732)
 28:   3146.45   0.001560    7.88  0.000155  ( 0.007837  0.001245 -0.009579)
 29:   3158.53   0.002732   13.81  0.000270  (-0.005281 -0.010057  0.011871)
 30:   3202.07   0.001680    8.49  0.000164  ( 0.000434 -0.010696 -0.007012)
 31:   3260.58   0.001349    6.82  0.000129  ( 0.004785  0.005198  0.008902)
 32:   3775.22   0.003926   19.84  0.000324  ( 0.003654 -0.017343 -0.003219)

--------------------------
THERMOCHEMISTRY AT 298.15K
--------------------------

Temperature         ...   298.15 K
Pressure            ...     1.00 atm
Total Mass          ...    59.09 AMU
Quasi RRHO          ...     True
Cut-Off Frequency   ...     1.00 cm^-1

Throughout the following assumptions are being made:
  (1) The electronic state is orbitally nondegenerate
      but the spin degeneracy is treated
  (2) There are no thermally accessible electronically excited states
  (3) Hindered rotations indicated by low frequency modes are not
      treated as such but are treated as vibrations and this may
      cause some error
  (4) All equations used are the standard statistical mechanics
      equations for an ideal gas
  (5) All vibrations are strictly harmonic

freq.     127.61  E(vib)   ...       0.43
freq.     190.12  E(vib)   ...       0.36
freq.     258.29  E(vib)   ...       0.30
freq.     280.66  E(vib)   ...       0.28
freq.     429.92  E(vib)   ...       0.18
freq.     604.53  E(vib)   ...       0.10
freq.     713.78  E(vib)   ...       0.07
freq.     927.18  E(vib)   ...       0.03
freq.     935.60  E(vib)   ...       0.03
freq.     954.66  E(vib)   ...       0.03
freq.    1040.69  E(vib)   ...       0.02
freq.    1072.40  E(vib)   ...       0.02
freq.    1211.22  E(vib)   ...       0.01
freq.    1334.65  E(vib)   ...       0.01
freq.    1415.27  E(vib)   ...       0.00
freq.    1464.85  E(vib)   ...       0.00
freq.    1495.88  E(vib)   ...       0.00
freq.    1509.15  E(vib)   ...       0.00
freq.    1666.62  E(vib)   ...       0.00
freq.    3049.72  E(vib)   ...       0.00
freq.    3117.59  E(vib)   ...       0.00
freq.    3146.45  E(vib)   ...       0.00
freq.    3158.53  E(vib)   ...       0.00
freq.    3202.07  E(vib)   ...       0.00
freq.    3260.58  E(vib)   ...       0.00
freq.    3775.22  E(vib)   ...       0.00

------------
INNER ENERGY
------------

The inner energy is: U= E(el) + E(ZPE) + E(vib) + E(rot) + E(trans)
    E(el)   - is the total energy from the electronic structure calculation
              = E(kin-el) + E(nuc-el) + E(el-el) + E(nuc-nuc)
    E(ZPE)  - the the zero temperature vibrational energy from the frequency calculation
    E(vib)  - the the finite temperature correction to E(ZPE) due to population
              of excited vibrational states
    E(rot)  - is the rotational thermal energy
    E(trans)- is the translational thermal energy

Summary of contributions to the inner energy U:
Electronic energy                ...   -193.36268036 Eh
Zero point energy                ...      0.09190866 Eh      57.67 kcal/mol
Thermal vibrational correction   ...      0.00297517 Eh       1.87 kcal/mol
Thermal rotational correction    ...      0.00141627 Eh       0.89 kcal/mol
Thermal translational correction ...      0.00141627 Eh       0.89 kcal/mol
-----------------------------------------------------------------------
Total thermal energy                   -193.26496399 Eh

Summary of corrections to the electronic energy:
(perhaps to be used in another calculation)
Total thermal correction                  0.00580772 Eh       3.64 kcal/mol
Non-thermal (ZPE) correction              0.09190866 Eh      57.67 kcal/mol
-----------------------------------------------------------------------
Total correction                          0.09771637 Eh      61.32 kcal/mol

--------
ENTHALPY
--------

The enthalpy is H = U + kB*T
                kB is Boltzmann's constant
Total thermal energy              ...   -193.26496399 Eh
Thermal Enthalpy correction       ...      0.00094421 Eh       0.59 kcal/mol
-----------------------------------------------------------------------
Total Enthalpy                    ...   -193.26401978 Eh

Note: Only C1 symmetry has been detected, increase convergence thresholds
      if your molecule has a higher symmetry. Symmetry factor of 1.0 is
      used for the rotational entropy correction.

Note: Rotational entropy computed according to Herzberg
Infrared and Raman Spectra, Chapter V,1, Van Nostrand Reinhold, 1945
Point Group:  C1, Symmetry Number:   1
Rotational constants in cm-1:     0.293365     0.213417     0.142615

Vibrational entropy computed according to the QRRHO of S. Grimme
Chem.Eur.J. 2012 18 9955 using a reference frequency of 100.0 cm-1

-------
ENTROPY
-------

The entropy contributions are T*S = T*(S(el)+S(vib)+S(rot)+S(trans))
     S(el)   - electronic entropy
     S(vib)  - vibrational entropy
     S(rot)  - rotational entropy
     S(trans)- translational entropy
The entropies will be listed as multiplied by the temperature to get
units of energy

Electronic entropy                ...      0.00065446 Eh      0.41 kcal/mol
Vibrational entropy               ...      0.00500960 Eh      3.14 kcal/mol
Rotational entropy                ...      0.01173835 Eh      7.37 kcal/mol
Translational entropy             ...      0.01812608 Eh     11.37 kcal/mol
-----------------------------------------------------------------------
Final entropy term                ...      0.03552848 Eh     22.29 kcal/mol

In case the symmetry of your molecule has not been determined correctly
or in case you have a reason to use a different symmetry number we print
out the resulting rotational entropy values for sn=1,12:

 non-linear molecules -----------------------------------
|  sn= 1 | S(rot)=       0.01173835 Eh      7.37 kcal/mol|
|  sn= 2 | S(rot)=       0.01108389 Eh      6.96 kcal/mol|
|  sn= 3 | S(rot)=       0.01070106 Eh      6.72 kcal/mol|
|  sn= 4 | S(rot)=       0.01042943 Eh      6.54 kcal/mol|
|  sn= 5 | S(rot)=       0.01021875 Eh      6.41 kcal/mol|
|  sn= 6 | S(rot)=       0.01004660 Eh      6.30 kcal/mol|
|  sn= 7 | S(rot)=       0.00990105 Eh      6.21 kcal/mol|
|  sn= 8 | S(rot)=       0.00977498 Eh      6.13 kcal/mol|
|  sn= 9 | S(rot)=       0.00966377 Eh      6.06 kcal/mol|
|  sn=10 | S(rot)=       0.00956429 Eh      6.00 kcal/mol|
|  sn=11 | S(rot)=       0.00947430 Eh      5.95 kcal/mol|
|  sn=12 | S(rot)=       0.00939214 Eh      5.89 kcal/mol|
 linear molecules ---------------------------------------
|  Dinfh | S(rot)=       0.00716470 Eh      4.50 kcal/mol|
|  Cinfv | S(rot)=       0.00781916 Eh      4.91 kcal/mol|
 --------------------------------------------------------

-------------------
GIBBS FREE ENERGY
-------------------

The Gibbs free energy is G = H - T*S

Total enthalpy                    ...   -193.26401978 Eh
Total entropy correction          ...     -0.03552848 Eh    -22.29 kcal/mol
-----------------------------------------------------------------------
Final Gibbs free energy         ...   -193.29954826 Eh

For completeness - the Gibbs free energy minus the electronic energy
G-E(el)                           ...      0.06313210 Eh     39.62 kcal/mol

                             ****ORCA TERMINATED NORMALLY****
TOTAL RUN TIME: 0 days 0 hours 26 minutes 56 seconds 718 msec
