                         Program Version 6.1.0  -  RELEASE   -
|  1> % MaxCore 10000
|  2> ! PAL8
|  3> ! REVDSD-PBEP86-D4/2021 def2-TZVPP def2-TZVPP/c
|  4> ! Opt
|  5> %scf
|  6>    Convergence    VeryTight
|  7> end
|  8> %geom
|  9>    MaxIter        100
| 10> end
| 11> * xyzfile 0 2 path_init_back.xyz
| 12>
| 13>                          ****END OF INPUT****
 Total Charge           Charge          ....    0
 Multiplicity           Mult            ....    2
 Number of Electrons    NEL             ....   33
MP2 TOTAL ENERGY:     -193.357404538 Eh
Dispersion correction           -0.004247177
FINAL SINGLE POINT ENERGY      -193.361651715170
MP2 TOTAL ENERGY:     -193.358338540 Eh
Dispersion correction           -0.004248866
FINAL SINGLE POINT ENERGY      -193.362587405755
MP2 TOTAL ENERGY:     -193.358359708 Eh
Dispersion correction           -0.004252362
FINAL SINGLE POINT ENERGY      -193.362612070534
FINAL SINGLE POINT ENERGY      -193.362826805362
FINAL SINGLE POINT ENERGY      -193.363204703014
FINAL SINGLE POINT ENERGY      -193.364233734778
FINAL SINGLE POINT ENERGY      -193.366275928137
FINAL SINGLE POINT ENERGY      -193.369125922908
FINAL SINGLE POINT ENERGY      -193.372121199307
FINAL SINGLE POINT ENERGY      -193.375365935415
FINAL SINGLE POINT ENERGY      -193.410604196309
FINAL SINGLE POINT ENERGY      -193.410655018250
FINAL SINGLE POINT ENERGY      -193.410673020125
FINAL SINGLE POINT ENERGY      -193.410710142256
FINAL SINGLE POINT ENERGY      -193.410723208738
FINAL SINGLE POINT ENERGY      -193.410735358969
FINAL SINGLE POINT ENERGY      -193.410739731903
MP2 TOTAL ENERGY:     -193.406482638 Eh
Dispersion correction           -0.004259693
FINAL SINGLE POINT ENERGY      -193.410742331314
MP2 TOTAL ENERGY:     -193.406481021 Eh
Dispersion correction           -0.004259924
FINAL SINGLE POINT ENERGY      -193.410740945252
                    ***********************HURRAY********************

CARTESIAN COORDINATES (ANGSTROEM)
---------------------------------
  C      0.038846   -0.455491    0.049436
  H     -0.093718    0.103149    0.985040
  C      1.280303    0.005692   -0.632436
  H      2.241749   -0.301409   -0.245126
  H      1.243576    0.759537   -1.406401
  C     -1.204879   -0.260906   -0.811224
  H     -1.115962   -0.825023   -1.743317
  H     -2.087709   -0.610085   -0.275855
  H     -1.339545    0.793532   -1.062732
  O      0.163781   -1.812705    0.485948
  H      0.397223   -2.337962   -0.285246

 Multiplicity           Mult            ....    2
 Number of Electrons    NEL             ....   33
 Basis Dimension        Dim             ....  222

ORBITAL ENERGIES
----------------
                 SPIN UP ORBITALS
  NO   OCC          E(Eh)            E(eV)
   0   1.0000     -19.997322      -544.1548
   1   1.0000     -10.869804      -295.7824
   2   1.0000     -10.825197      -294.5686
   3   1.0000     -10.804946      -294.0175
   4   1.0000      -1.232352       -33.5340
   5   1.0000      -0.948890       -25.8206
   6   1.0000      -0.848226       -23.0814
   7   1.0000      -0.736036       -20.0285
   8   1.0000      -0.602259       -16.3883
   9   1.0000      -0.574272       -15.6267
  10   1.0000      -0.552464       -15.0333
  11   1.0000      -0.525987       -14.3128
  12   1.0000      -0.473839       -12.8938
  13   1.0000      -0.465707       -12.6725
  14   1.0000      -0.432780       -11.7765
  15   1.0000      -0.391432       -10.6514
  16   1.0000      -0.313723        -8.5368
  17   0.0000       0.101046         2.7496
  18   0.0000       0.132593         3.6080
  19   0.0000       0.148583         4.0431
  20   0.0000       0.152712         4.1555
  21   0.0000       0.170774         4.6470

                 SPIN DOWN ORBITALS
  NO   OCC          E(Eh)            E(eV)
   0   1.0000     -19.996309      -544.1272
   1   1.0000     -10.871953      -295.8409
   2   1.0000     -10.805562      -294.0343
   3   1.0000     -10.804372      -294.0019
   4   1.0000      -1.229027       -33.4435
   5   1.0000      -0.932674       -25.3794
   6   1.0000      -0.814567       -22.1655
   7   1.0000      -0.717377       -19.5208
   8   1.0000      -0.595909       -16.2155
   9   1.0000      -0.563868       -15.3436
  10   1.0000      -0.544493       -14.8164
  11   1.0000      -0.522382       -14.2147
  12   1.0000      -0.468608       -12.7515
  13   1.0000      -0.461264       -12.5516
  14   1.0000      -0.422848       -11.5063
  15   1.0000      -0.384323       -10.4580
  16   0.0000       0.033179         0.9028
  17   0.0000       0.108888         2.9630
  18   0.0000       0.138357         3.7649
  19   0.0000       0.151699         4.1279
  20   0.0000       0.161441         4.3930

MULLIKEN ATOMIC CHARGES AND SPIN DENSITIES
------------------------------------------
   0 C :    0.198907   -0.077542
   1 H :    0.068345    0.044374
   2 C :   -0.286932    1.105121
   3 H :    0.117164   -0.047856
   4 H :    0.096027   -0.052906
   5 C :   -0.277881    0.004111
   6 H :    0.077352    0.003495
   7 H :    0.104891    0.000323
   8 H :    0.077975   -0.000454
   9 O :   -0.366304    0.014322
  10 H :    0.190457    0.007012
Sum of atomic charges       :   -0.0000000

LOEWDIN ATOMIC CHARGES AND SPIN DENSITIES
-----------------------------------------
   0 C :   -0.232857    0.069660
   1 H :    0.023289    0.029788
   2 C :    0.098481    0.771046
   3 H :   -0.022464    0.047973
   4 H :   -0.023598    0.048932
   5 C :    0.003394    0.007532
   6 H :    0.008516    0.001887
   7 H :    0.012616    0.000436
   8 H :    0.012213    0.000624
   9 O :    0.262841    0.016506
  10 H :   -0.142432    0.005617

  Mayer bond orders larger than 0.100000
B(  0-C ,  1-H ) :   0.9431 B(  0-C ,  2-C ) :   0.9813 B(  0-C ,  5-C ) :   0.9306
B(  0-C ,  9-O ) :   0.9228 B(  2-C ,  3-H ) :   0.9724 B(  2-C ,  4-H ) :   0.9740
B(  5-C ,  6-H ) :   0.9553 B(  5-C ,  7-H ) :   0.9684 B(  5-C ,  8-H ) :   0.9565
B(  9-O , 10-H ) :   0.9705

MP2 TOTAL ENERGY:     -193.406482929 Eh
Dispersion correction           -0.004260181
FINAL SINGLE POINT ENERGY      -193.410743110133

DIPOLE MOMENT
-------------

Method             : MP2
Type of density    : Electron Density
Multiplicity       :   2
Level              : Relaxed density
Irrep              :   0
Energy             :     0.0000000000000000 Eh
Basis              : AO
                                X                 Y                 Z
Electronic contribution:      1.098757195      -1.872938646       1.786547429
Nuclear contribution   :     -1.065394451       2.157432516      -2.324810071
                        -----------------------------------------
Total Dipole Moment    :      0.033362744       0.284493870      -0.538262642
                        -----------------------------------------
Magnitude (a.u.)       :      0.609734784
Magnitude (Debye)      :      1.549822653

Rotational constants in cm-1:             0.301023             0.280887             0.164001
Rotational constants in MHz :          9024.450100          8420.794797          4916.621881

                             ****ORCA TERMINATED NORMALLY****
TOTAL RUN TIME: 0 days 0 hours 23 minutes 20 seconds 436 msec
