                         Program Version 6.1.0  -  RELEASE   -
|  1> ! PAL8
|  2> ! wB97X-3c
|  3> ! TIGHT-NEB-TS  # NEB calculation with tighter convergence criteria plus
|  4>                 # subsequent TS optimization
|  5> ! FREQ
|  6>
|  7> %NEB
|  8>  NEB_END_XYZFILE "product.xyz"
|  9> END
| 10>
| 11> * xyzfile 0 2 reactant.xyz
| 12>
| 13>                          ****END OF INPUT****
 Total Charge           Charge          ....    0
 Multiplicity           Mult            ....    2
 Number of Electrons    NEL             ....   35
Dispersion correction           -0.013275135
FINAL SINGLE POINT ENERGY       -49.864849841791
Dispersion correction             ... done (  0.0 sec)
Dispersion correction           -0.013284467
FINAL SINGLE POINT ENERGY       -49.864866990423
Dispersion correction             ... done (  0.0 sec)
Dispersion correction           -0.013290659
FINAL SINGLE POINT ENERGY       -49.864880679186
Dispersion correction             ... done (  0.0 sec)
FINAL SINGLE POINT ENERGY       -49.864894640251
FINAL SINGLE POINT ENERGY       -49.864915887199
FINAL SINGLE POINT ENERGY       -49.864945516262
FINAL SINGLE POINT ENERGY       -49.864982651223
FINAL SINGLE POINT ENERGY       -49.865026743421
FINAL SINGLE POINT ENERGY       -49.865054882955
FINAL SINGLE POINT ENERGY       -49.865015872041
FINAL SINGLE POINT ENERGY       -49.865294273022
FINAL SINGLE POINT ENERGY       -49.865314705731
FINAL SINGLE POINT ENERGY       -49.865320906882
FINAL SINGLE POINT ENERGY       -49.865327247232
FINAL SINGLE POINT ENERGY       -49.865333405860
FINAL SINGLE POINT ENERGY       -49.865336269344
FINAL SINGLE POINT ENERGY       -49.865342175737
Dispersion correction             ... done (  0.0 sec)
Dispersion correction           -0.013500897
FINAL SINGLE POINT ENERGY       -49.865342714426
Dispersion correction             ... done (  0.0 sec)

CARTESIAN COORDINATES (ANGSTROEM)
---------------------------------
  C      1.217172    0.364324   -0.460030
  C      0.007537    1.248770   -0.132613
  C     -1.226081    0.385427   -0.424761
  C     -0.679460   -1.011463   -0.383499
  C      0.648096   -1.022943   -0.402806
  H      1.609313    0.561303   -1.461699
  H      2.041930    0.511943    0.236523
  H      0.007651    2.184322   -0.688809
  H      0.024743    1.497215    0.928390
  H     -2.028066    0.547178    0.294957
  H     -1.643447    0.589000   -1.414858
  H     -1.307701   -1.893020   -0.396825
  H      1.259822   -1.915581   -0.435070
  O      0.045266   -0.584182    2.577178
  H      0.023224   -1.462295    2.163922

Dispersion correction           -0.013503264
FINAL SINGLE POINT ENERGY       -49.865344669999
Dispersion correction             ... done (  0.0 sec)
                    ***********************HURRAY********************
 Multiplicity           Mult            ....    2
 Number of Electrons    NEL             ....   35
 Basis Dimension        Dim             ....  123

ORBITAL ENERGIES
----------------
                 SPIN UP ORBITALS
  NO   OCC          E(Eh)            E(eV)
   0   1.0000      -1.125042       -30.6139
   1   1.0000      -0.992108       -26.9966
   2   1.0000      -0.849818       -23.1247
   3   1.0000      -0.845676       -23.0120
   4   1.0000      -0.702625       -19.1194
   5   1.0000      -0.657724       -17.8976
   6   1.0000      -0.624557       -16.9951
   7   1.0000      -0.592127       -16.1126
   8   1.0000      -0.584938       -15.9170
   9   1.0000      -0.519409       -14.1338
  10   1.0000      -0.512896       -13.9566
  11   1.0000      -0.493611       -13.4318
  12   1.0000      -0.459279       -12.4976
  13   1.0000      -0.459094       -12.4926
  14   1.0000      -0.453288       -12.3346
  15   1.0000      -0.450233       -12.2515
  16   1.0000      -0.448790       -12.2122
  17   1.0000      -0.347519        -9.4565
  18   0.0000       0.078416         2.1338
  19   0.0000       0.095275         2.5926
  20   0.0000       0.098910         2.6915
  21   0.0000       0.115282         3.1370
  22   0.0000       0.116671         3.1748

                 SPIN DOWN ORBITALS
  NO   OCC          E(Eh)            E(eV)
   0   1.0000      -1.054109       -28.6838
   1   1.0000      -0.991315       -26.9751
   2   1.0000      -0.849122       -23.1058
   3   1.0000      -0.845540       -23.0083
   4   1.0000      -0.702248       -19.1091
   5   1.0000      -0.657376       -17.8881
   6   1.0000      -0.624314       -16.9884
   7   1.0000      -0.589456       -16.0399
   8   1.0000      -0.557578       -15.1725
   9   1.0000      -0.512636       -13.9495
  10   1.0000      -0.493354       -13.4248
  11   1.0000      -0.458950       -12.4887
  12   1.0000      -0.458767       -12.4837
  13   1.0000      -0.449094       -12.2205
  14   1.0000      -0.448880       -12.2147
  15   1.0000      -0.426105       -11.5949
  16   1.0000      -0.348385        -9.4800
  17   0.0000      -0.057812        -1.5731
  18   0.0000       0.080953         2.2029
  19   0.0000       0.096928         2.6375
  20   0.0000       0.100338         2.7303
  21   0.0000       0.115490         3.1426

-------
TIMINGS
-------

Dispersion correction           -0.013503106
FINAL SINGLE POINT ENERGY       -49.865343129735
                    ***********************HURRAY************************

DIPOLE MOMENT
-------------

Method             : SCF
Type of density    : Electron Density
Multiplicity       :   2
Irrep              :   0
Energy             :   -49.8518400235211345 Eh
Basis              : AO
                                X                 Y                 Z
Electronic contribution:     -0.009818715      -1.817970097       0.008993139
Nuclear contribution   :     -0.008717519       1.388117448      -0.472476751
                        -----------------------------------------
Total Dipole Moment    :     -0.018536234      -0.429852649      -0.463483612
                        -----------------------------------------
Magnitude (a.u.)       :      0.632403313
Magnitude (Debye)      :      1.607441476

VIBRATIONAL FREQUENCIES
-----------------------

Scaling factor for frequencies =  1.000000000  (already applied!)

     0:       0.00 cm**-1
     1:       0.00 cm**-1
     2:       0.00 cm**-1
     3:       0.00 cm**-1
     4:       0.00 cm**-1
     5:       0.00 cm**-1
     6:    -173.95 cm**-1  ***imaginary mode***
     7:      50.50 cm**-1
     8:      86.22 cm**-1
     9:     146.05 cm**-1
    10:     166.71 cm**-1
    11:     189.76 cm**-1
    12:     404.91 cm**-1
    13:     626.30 cm**-1
    14:     734.64 cm**-1
    15:     802.81 cm**-1
    16:     849.72 cm**-1
    17:     917.04 cm**-1
    18:     944.94 cm**-1
    19:     947.58 cm**-1
    20:     999.54 cm**-1
    21:    1010.46 cm**-1
    22:    1077.40 cm**-1
    23:    1094.39 cm**-1
    24:    1146.87 cm**-1
    25:    1187.50 cm**-1
    26:    1265.05 cm**-1
    27:    1268.73 cm**-1
    28:    1337.87 cm**-1
    29:    1365.92 cm**-1
    30:    1376.77 cm**-1
    31:    1421.01 cm**-1
    32:    1509.27 cm**-1
    33:    1516.80 cm**-1
    34:    1540.69 cm**-1
    35:    1726.80 cm**-1
    36:    3096.15 cm**-1
    37:    3097.99 cm**-1
    38:    3129.72 cm**-1
    39:    3162.77 cm**-1
    40:    3163.38 cm**-1
    41:    3191.43 cm**-1
    42:    3243.77 cm**-1
    43:    3268.61 cm**-1
    44:    3841.63 cm**-1

IR SPECTRUM
-----------

 Mode   freq       eps      Int      T**2         TX        TY        TZ
       cm**-1   L/(mol*cm) km/mol    a.u.
----------------------------------------------------------------------------
  7:     50.50   0.001692    8.55  0.010453  (-0.102203  0.001800  0.002100)
  8:     86.22   0.000658    3.32  0.002381  ( 0.002183 -0.016436  0.045888)
  9:    146.05   0.017421   88.04  0.037224  (-0.192802  0.006838 -0.002085)
 10:    166.71   0.001549    7.83  0.002900  ( 0.007934  0.027245 -0.045763)
 11:    189.76   0.014754   74.56  0.024264  (-0.004094 -0.061865  0.142897)
 12:    404.91   0.000002    0.01  0.000002  (-0.001218  0.000001 -0.000265)
 13:    626.30   0.002871   14.51  0.001431  ( 0.000551 -0.002117  0.037761)
 14:    734.64   0.009272   46.86  0.003939  ( 0.000977 -0.000665  0.062747)
 15:    802.81   0.000098    0.49  0.000038  (-0.006168  0.000049  0.000100)
 16:    849.72   0.000168    0.85  0.000062  (-0.000161 -0.002030 -0.007590)
 17:    917.04   0.000508    2.57  0.000173  (-0.013150  0.000103  0.000160)
 18:    944.94   0.003273   16.54  0.001081  (-0.032874  0.000218  0.000438)
 19:    947.58   0.000106    0.54  0.000035  (-0.000443  0.005748  0.001342)
 20:    999.54   0.000096    0.49  0.000030  ( 0.005475 -0.000088 -0.000042)
 21:   1010.46   0.000514    2.60  0.000159  ( 0.000159  0.011498  0.005135)
 22:   1077.40   0.000461    2.33  0.000133  ( 0.011550 -0.000113 -0.000190)
 23:   1094.39   0.001561    7.89  0.000445  (-0.000287 -0.000834 -0.021081)
 24:   1146.87   0.000201    1.02  0.000055  ( 0.000035 -0.001493  0.007243)
 25:   1187.50   0.000516    2.61  0.000136  (-0.011646  0.000102  0.000137)
 26:   1265.05   0.000454    2.30  0.000112  (-0.000176 -0.003150 -0.010107)
 27:   1268.73   0.000011    0.06  0.000003  (-0.001664  0.000011  0.000079)
 28:   1337.87   0.000447    2.26  0.000104  ( 0.010211 -0.000084 -0.000141)
 29:   1365.92   0.000046    0.23  0.000011  ( 0.003253 -0.000016 -0.000043)
 30:   1376.77   0.000614    3.10  0.000139  ( 0.000126  0.011749  0.001071)
 31:   1421.01   0.000629    3.18  0.000138  (-0.011755  0.000116  0.000151)
 32:   1509.27   0.000867    4.38  0.000179  ( 0.000131  0.004886  0.012468)
 33:   1516.80   0.001427    7.21  0.000294  ( 0.017134 -0.000073 -0.000116)
 34:   1540.69   0.001274    6.44  0.000258  (-0.000152 -0.015838 -0.002666)
 35:   1726.80   0.002094   10.58  0.000378  ( 0.000189 -0.011216  0.015892)
 36:   3096.15   0.003754   18.97  0.000378  ( 0.001200 -0.005012  0.018758)
 37:   3097.99   0.009717   49.10  0.000979  ( 0.031267 -0.000113 -0.001083)
 38:   3129.72   0.003955   19.99  0.000394  (-0.000234 -0.019365 -0.004397)
 39:   3162.77   0.002473   12.50  0.000244  (-0.012302  0.006818  0.006797)
 40:   3163.38   0.002414   12.20  0.000238  ( 0.009700  0.008686  0.008281)
 41:   3191.43   0.004292   21.69  0.000420  (-0.000187  0.011601 -0.016884)
 42:   3243.77   0.000848    4.29  0.000082  ( 0.009032 -0.000015 -0.000147)
 43:   3268.61   0.002736   13.83  0.000261  (-0.000208 -0.015875 -0.003023)
 44:   3841.63   0.005324   26.90  0.000432  (-0.000519 -0.018410 -0.009656)

--------------------------
THERMOCHEMISTRY AT 298.15K
--------------------------

Temperature         ...   298.15 K
Pressure            ...     1.00 atm
Total Mass          ...    85.13 AMU
Quasi RRHO          ...     True
Cut-Off Frequency   ...     1.00 cm^-1

Throughout the following assumptions are being made:
  (1) The electronic state is orbitally nondegenerate
      but the spin degeneracy is treated
  (2) There are no thermally accessible electronically excited states
  (3) Hindered rotations indicated by low frequency modes are not
      treated as such but are treated as vibrations and this may
      cause some error
  (4) All equations used are the standard statistical mechanics
      equations for an ideal gas
  (5) All vibrations are strictly harmonic

freq.      50.50  E(vib)   ...       0.52
freq.      86.22  E(vib)   ...       0.48
freq.     146.05  E(vib)   ...       0.41
freq.     166.71  E(vib)   ...       0.39
freq.     189.76  E(vib)   ...       0.36
freq.     404.91  E(vib)   ...       0.19
freq.     626.30  E(vib)   ...       0.09
freq.     734.64  E(vib)   ...       0.06
freq.     802.81  E(vib)   ...       0.05
freq.     849.72  E(vib)   ...       0.04
freq.     917.04  E(vib)   ...       0.03
freq.     944.94  E(vib)   ...       0.03
freq.     947.58  E(vib)   ...       0.03
freq.     999.54  E(vib)   ...       0.02
freq.    1010.46  E(vib)   ...       0.02
freq.    1077.40  E(vib)   ...       0.02
freq.    1094.39  E(vib)   ...       0.02
freq.    1146.87  E(vib)   ...       0.01
freq.    1187.50  E(vib)   ...       0.01
freq.    1265.05  E(vib)   ...       0.01
freq.    1268.73  E(vib)   ...       0.01
freq.    1337.87  E(vib)   ...       0.01
freq.    1365.92  E(vib)   ...       0.01
freq.    1376.77  E(vib)   ...       0.01
freq.    1421.01  E(vib)   ...       0.00
freq.    1509.27  E(vib)   ...       0.00
freq.    1516.80  E(vib)   ...       0.00
freq.    1540.69  E(vib)   ...       0.00
freq.    1726.80  E(vib)   ...       0.00
freq.    3096.15  E(vib)   ...       0.00
freq.    3097.99  E(vib)   ...       0.00
freq.    3129.72  E(vib)   ...       0.00
freq.    3162.77  E(vib)   ...       0.00
freq.    3163.38  E(vib)   ...       0.00
freq.    3191.43  E(vib)   ...       0.00
freq.    3243.77  E(vib)   ...       0.00
freq.    3268.61  E(vib)   ...       0.00
freq.    3841.63  E(vib)   ...       0.00

------------
INNER ENERGY
------------

The inner energy is: U= E(el) + E(ZPE) + E(vib) + E(rot) + E(trans)
    E(el)   - is the total energy from the electronic structure calculation
              = E(kin-el) + E(nuc-el) + E(el-el) + E(nuc-nuc)
    E(ZPE)  - the the zero temperature vibrational energy from the frequency calculation
    E(vib)  - the the finite temperature correction to E(ZPE) due to population
              of excited vibrational states
    E(rot)  - is the rotational thermal energy
    E(trans)- is the translational thermal energy

Summary of contributions to the inner energy U:
Electronic energy                ...    -49.86534313 Eh
Zero point energy                ...      0.12964521 Eh      81.35 kcal/mol
Thermal vibrational correction   ...      0.00450897 Eh       2.83 kcal/mol
Thermal rotational correction    ...      0.00141627 Eh       0.89 kcal/mol
Thermal translational correction ...      0.00141627 Eh       0.89 kcal/mol
-----------------------------------------------------------------------
Total thermal energy                    -49.72835641 Eh

Summary of corrections to the electronic energy:
(perhaps to be used in another calculation)
Total thermal correction                  0.00734151 Eh       4.61 kcal/mol
Non-thermal (ZPE) correction              0.12964521 Eh      81.35 kcal/mol
-----------------------------------------------------------------------
Total correction                          0.13698672 Eh      85.96 kcal/mol

--------
ENTHALPY
--------

The enthalpy is H = U + kB*T
                kB is Boltzmann's constant
Total thermal energy              ...    -49.72835641 Eh
Thermal Enthalpy correction       ...      0.00094421 Eh       0.59 kcal/mol
-----------------------------------------------------------------------
Total Enthalpy                    ...    -49.72741221 Eh

Note: Only C1 symmetry has been detected, increase convergence thresholds
      if your molecule has a higher symmetry. Symmetry factor of 1.0 is
      used for the rotational entropy correction.

Note: Rotational entropy computed according to Herzberg
Infrared and Raman Spectra, Chapter V,1, Van Nostrand Reinhold, 1945
Point Group:  C1, Symmetry Number:   1
Rotational constants in cm-1:     0.134917     0.088388     0.087487

Vibrational entropy computed according to the QRRHO of S. Grimme
Chem.Eur.J. 2012 18 9955 using a reference frequency of 100.0 cm-1

-------
ENTROPY
-------

The entropy contributions are T*S = T*(S(el)+S(vib)+S(rot)+S(trans))
     S(el)   - electronic entropy
     S(vib)  - vibrational entropy
     S(rot)  - rotational entropy
     S(trans)- translational entropy
The entropies will be listed as multiplied by the temperature to get
units of energy

Electronic entropy                ...      0.00065446 Eh      0.41 kcal/mol
Vibrational entropy               ...      0.00816848 Eh      5.13 kcal/mol
Rotational entropy                ...      0.01275189 Eh      8.00 kcal/mol
Translational entropy             ...      0.01864317 Eh     11.70 kcal/mol
-----------------------------------------------------------------------
Final entropy term                ...      0.04021800 Eh     25.24 kcal/mol

In case the symmetry of your molecule has not been determined correctly
or in case you have a reason to use a different symmetry number we print
out the resulting rotational entropy values for sn=1,12:

 non-linear molecules -----------------------------------
|  sn= 1 | S(rot)=       0.01275189 Eh      8.00 kcal/mol|
|  sn= 2 | S(rot)=       0.01209743 Eh      7.59 kcal/mol|
|  sn= 3 | S(rot)=       0.01171460 Eh      7.35 kcal/mol|
|  sn= 4 | S(rot)=       0.01144298 Eh      7.18 kcal/mol|
|  sn= 5 | S(rot)=       0.01123229 Eh      7.05 kcal/mol|
|  sn= 6 | S(rot)=       0.01106014 Eh      6.94 kcal/mol|
|  sn= 7 | S(rot)=       0.01091460 Eh      6.85 kcal/mol|
|  sn= 8 | S(rot)=       0.01078852 Eh      6.77 kcal/mol|
|  sn= 9 | S(rot)=       0.01067731 Eh      6.70 kcal/mol|
|  sn=10 | S(rot)=       0.01057783 Eh      6.64 kcal/mol|
|  sn=11 | S(rot)=       0.01048784 Eh      6.58 kcal/mol|
|  sn=12 | S(rot)=       0.01040569 Eh      6.53 kcal/mol|
 linear molecules ---------------------------------------
|  Dinfh | S(rot)=       0.00762608 Eh      4.79 kcal/mol|
|  Cinfv | S(rot)=       0.00828054 Eh      5.20 kcal/mol|
 --------------------------------------------------------

-------------------
GIBBS FREE ENERGY
-------------------

                             ****ORCA TERMINATED NORMALLY****
TOTAL RUN TIME: 0 days 2 hours 57 minutes 41 seconds 958 msec
