                         Program Version 6.1.0  -  RELEASE   -
|  1> % MaxCore 10000
|  2> ! PAL8
|  3> ! REVDSD-PBEP86-D4/2021 def2-TZVPP def2-TZVPP/c
|  4> ! OPT
|  5> * xyzfile 0 2 guess.xyz
|  6>
|  7>                          ****END OF INPUT****
 Total Charge           Charge          ....    0
 Multiplicity           Mult            ....    2
 Number of Electrons    NEL             ....   33
MP2 TOTAL ENERGY:     -193.364033610 Eh
Dispersion correction           -0.003648649
FINAL SINGLE POINT ENERGY      -193.367682258828
MP2 TOTAL ENERGY:     -193.364066989 Eh
Dispersion correction           -0.003653247
FINAL SINGLE POINT ENERGY      -193.367720235248
MP2 TOTAL ENERGY:     -193.364065652 Eh
Dispersion correction           -0.003654745
FINAL SINGLE POINT ENERGY      -193.367720397235
                    ***********************HURRAY********************

CARTESIAN COORDINATES (ANGSTROEM)
---------------------------------
  C     -0.001332    0.001334    0.004022
  C     -0.002258    0.001146    1.339164
  H      0.922209    0.000846   -0.561171
  H     -0.928895   -0.014629   -0.558268
  H      0.950398    0.008671    1.862580
  C     -1.234817   -0.003196    2.190805
  H     -1.242059   -0.869785    2.856226
  H     -2.136745   -0.030099    1.577462
  H     -1.271066    0.888992    2.821097
  O     -0.438336    3.254340    1.026424
  H     -0.243101    2.340402    0.750063

 Multiplicity           Mult            ....    2
 Number of Electrons    NEL             ....   33
 Basis Dimension        Dim             ....  222

ORBITAL ENERGIES
----------------
                 SPIN UP ORBITALS
  NO   OCC          E(Eh)            E(eV)
   0   1.0000     -20.057933      -545.8041
   1   1.0000     -10.839654      -294.9620
   2   1.0000     -10.822461      -294.4941
   3   1.0000     -10.819056      -294.4015
   4   1.0000      -1.229295       -33.4508
   5   1.0000      -0.979003       -26.6400
   6   1.0000      -0.855515       -23.2798
   7   1.0000      -0.698383       -19.0040
   8   1.0000      -0.593224       -16.1424
   9   1.0000      -0.589712       -16.0469
  10   1.0000      -0.550913       -14.9911
  11   1.0000      -0.538737       -14.6598
  12   1.0000      -0.522376       -14.2146
  13   1.0000      -0.479754       -13.0548
  14   1.0000      -0.461089       -12.5469
  15   1.0000      -0.453237       -12.3332
  16   1.0000      -0.344939        -9.3863
  17   0.0000       0.076141         2.0719
  18   0.0000       0.099775         2.7150
  19   0.0000       0.135036         3.6745
  20   0.0000       0.140515         3.8236
  21   0.0000       0.166154         4.5213

                 SPIN DOWN ORBITALS
  NO   OCC          E(Eh)            E(eV)
   0   1.0000     -20.023809      -544.8755
   1   1.0000     -10.839679      -294.9627
   2   1.0000     -10.822507      -294.4954
   3   1.0000     -10.819053      -294.4014
   4   1.0000      -1.105625       -30.0856
   5   1.0000      -0.978951       -26.6386
   6   1.0000      -0.855557       -23.2809
   7   1.0000      -0.698418       -19.0049
   8   1.0000      -0.592316       -16.1177
   9   1.0000      -0.556355       -15.1392
  10   1.0000      -0.538770       -14.6607
  11   1.0000      -0.520952       -14.1758
  12   1.0000      -0.479726       -13.0540
  13   1.0000      -0.453247       -12.3335
  14   1.0000      -0.423104       -11.5133
  15   1.0000      -0.344422        -9.3722
  16   0.0000       0.010012         0.2724
  17   0.0000       0.076438         2.0800
  18   0.0000       0.101462         2.7609
  19   0.0000       0.135727         3.6933
  20   0.0000       0.141025         3.8375

MULLIKEN ATOMIC CHARGES AND SPIN DENSITIES
------------------------------------------
   0 C :   -0.256500   -0.000378
   1 C :   -0.127646   -0.004225
   2 H :    0.111586    0.000018
   3 H :    0.101508   -0.000008
   4 H :    0.112362    0.000370
   5 C :   -0.227759    0.003300
   6 H :    0.100917    0.000244
   7 H :    0.088076   -0.000079
   8 H :    0.102652   -0.001525
   9 O :   -0.252932    1.018982
  10 H :    0.247736   -0.016698
Sum of atomic charges       :   -0.0000000

LOEWDIN ATOMIC CHARGES AND SPIN DENSITIES
-----------------------------------------
   0 C :    0.003404   -0.000325
   1 C :   -0.042559   -0.001608
   2 H :   -0.001077   -0.000028
   3 H :   -0.000984   -0.000021
   4 H :    0.011698   -0.000091
   5 C :   -0.001269    0.000171
   6 H :    0.017154    0.000081
   7 H :    0.017286    0.000024
   8 H :    0.018054   -0.000205
   9 O :    0.156932    0.948484
  10 H :   -0.178638    0.053518

  Mayer bond orders larger than 0.100000
B(  0-C ,  1-C ) :   1.7831 B(  0-C ,  2-H ) :   0.9698 B(  0-C ,  3-H ) :   0.9754
B(  1-C ,  4-H ) :   0.9608 B(  1-C ,  5-C ) :   0.9304 B(  5-C ,  6-H ) :   0.9554
B(  5-C ,  7-H ) :   0.9647 B(  5-C ,  8-H ) :   0.9515 B(  9-O , 10-H ) :   0.9451

MP2 TOTAL ENERGY:     -193.364065830 Eh
Dispersion correction           -0.003654742
FINAL SINGLE POINT ENERGY      -193.367720572048

DIPOLE MOMENT
-------------

Method             : MP2
Type of density    : Electron Density
Multiplicity       :   2
Level              : Relaxed density
Irrep              :   0
Energy             :     0.0000000000000000 Eh
Basis              : AO
                                X                 Y                 Z
Electronic contribution:      0.909978070       3.006516588      -0.693165153
Nuclear contribution   :     -0.830020902      -3.831050397       0.682495457
                        -----------------------------------------
Total Dipole Moment    :      0.079957169      -0.824533809      -0.010669696
                        -----------------------------------------
Magnitude (a.u.)       :      0.828470273
Magnitude (Debye)      :      2.105804083

Rotational constants in cm-1:             0.272531             0.123616             0.093833
Rotational constants in MHz :          8170.275598          3705.919039          2813.031254

                             ****ORCA TERMINATED NORMALLY****
TOTAL RUN TIME: 0 days 0 hours 1 minutes 48 seconds 88 msec
