                         Program Version 6.1.0  -  RELEASE   -
|  1> !B3LYP cc-pVTZ OPT
|  2> * xyz 0 2
|  3>  C                 -0.61880100    1.33440400   -0.21215800
|  4>  C                 -0.82827700    0.20339400    0.45527500
|  5>  H                 -0.40518200    2.26356200    0.29925400
|  6>  H                 -0.67421400    1.37294700   -1.29406000
|  7>  C                 -1.13806300   -1.12435400   -0.16095200
|  8>  H                 -2.08567700   -1.51537500    0.21754200
|  9>  H                 -1.20326800   -1.05861900   -1.24700200
| 10>  H                 -0.36868900   -1.85730300    0.09389300
| 11>  H                 -0.77224300    0.22197900    1.54008400
| 12>  O                  2.43052800   -0.26483000   -0.00532100
| 13>  H                  1.57589700    0.21078700   -0.06013200
| 14> **                         ****END OF INPUT****
 Total Charge           Charge          ....    0
 Multiplicity           Mult            ....    2
 Number of Electrons    NEL             ....   33
FINAL SINGLE POINT ENERGY      -193.605996617098
                    ***********************HURRAY********************

CARTESIAN COORDINATES (ANGSTROEM)
---------------------------------
  C     -0.618883    1.334726   -0.212226
  C     -0.828442    0.203462    0.455293
  H     -0.405113    2.263979    0.299293
  H     -0.674144    1.373396   -1.294307
  C     -1.138299   -1.124567   -0.160961
  H     -2.085938   -1.515887    0.217625
  H     -1.203504   -1.058867   -1.247183
  H     -0.368831   -1.857614    0.094018
  H     -0.772403    0.221939    1.540320
  O      2.431203   -0.264789   -0.005504
  H      1.576365    0.210814   -0.059944

 Multiplicity           Mult            ....    2
 Number of Electrons    NEL             ....   33
 Basis Dimension        Dim             ....  218

ORBITAL ENERGIES
----------------
                 SPIN UP ORBITALS
  NO   OCC          E(Eh)            E(eV)
   0   1.0000     -19.177069      -521.8346
   1   1.0000     -10.194049      -277.3942
   2   1.0000     -10.177261      -276.9374
   3   1.0000     -10.176898      -276.9275
   4   1.0000      -0.997083       -27.1320
   5   1.0000      -0.803117       -21.8539
   6   1.0000      -0.699504       -19.0345
   7   1.0000      -0.568849       -15.4792
   8   1.0000      -0.482304       -13.1242
   9   1.0000      -0.460676       -12.5356
  10   1.0000      -0.437032       -11.8923
  11   1.0000      -0.423110       -11.5134
  12   1.0000      -0.399079       -10.8595
  13   1.0000      -0.384704       -10.4683
  14   1.0000      -0.360540        -9.8108
  15   1.0000      -0.326631        -8.8881
  16   1.0000      -0.278531        -7.5792
  17   0.0000      -0.007119        -0.1937
  18   0.0000       0.035476         0.9654
  19   0.0000       0.066036         1.7969
  20   0.0000       0.072213         1.9650
  21   0.0000       0.094430         2.5696

                 SPIN DOWN ORBITALS
  NO   OCC          E(Eh)            E(eV)
   0   1.0000     -19.151628      -521.1423
   1   1.0000     -10.194072      -277.3948
   2   1.0000     -10.177273      -276.9377
   3   1.0000     -10.176898      -276.9275
   4   1.0000      -0.926242       -25.2043
   5   1.0000      -0.803077       -21.8528
   6   1.0000      -0.699511       -19.0347
   7   1.0000      -0.568863       -15.4796
   8   1.0000      -0.482290       -13.1238
   9   1.0000      -0.438444       -11.9307
  10   1.0000      -0.437032       -11.8922
  11   1.0000      -0.420182       -11.4337
  12   1.0000      -0.384707       -10.4684
  13   1.0000      -0.360543        -9.8109
  14   1.0000      -0.300817        -8.1857
  15   1.0000      -0.277965        -7.5638
  16   0.0000      -0.152894        -4.1604
  17   0.0000      -0.006989        -0.1902
  18   0.0000       0.036645         0.9972
  19   0.0000       0.066192         1.8012
  20   0.0000       0.072458         1.9717

MULLIKEN ATOMIC CHARGES AND SPIN POPULATIONS
--------------------------------------------
   0 C :   -0.326105   -0.000201
   1 C :   -0.076511   -0.001855
   2 H :    0.126878    0.000019
   3 H :    0.122392    0.000123
   4 C :   -0.283567   -0.000364
   5 H :    0.107272    0.000324
   6 H :    0.099345    0.000280
   7 H :    0.110816   -0.000900
   8 H :    0.130572    0.000644
   9 O :   -0.268061    1.016437
  10 H :    0.256968   -0.014506
Sum of atomic charges         :   -0.0000000

LOEWDIN ATOMIC CHARGES AND SPIN POPULATIONS
-------------------------------------------
   0 C :    0.079889   -0.000369
   1 C :    0.020677   -0.001144
   2 H :   -0.041183   -0.000049
   3 H :   -0.042773    0.000003
   4 C :    0.098586   -0.000135
   5 H :   -0.016737    0.000045
   6 H :   -0.019377    0.000013
   7 H :   -0.016924   -0.000417
   8 H :   -0.028911   -0.000029
   9 O :    0.213423    0.947562
  10 H :   -0.246670    0.054521

  Mayer bond orders larger than 0.100000
B(  0-C ,  1-C ) :   1.8195 B(  0-C ,  2-H ) :   0.9681 B(  0-C ,  3-H ) :   0.9589
B(  1-C ,  4-C ) :   0.9757 B(  1-C ,  8-H ) :   0.9576 B(  4-C ,  5-H ) :   0.9585
B(  4-C ,  6-H ) :   0.9712 B(  4-C ,  7-H ) :   0.9518 B(  9-O , 10-H ) :   0.9728

FINAL SINGLE POINT ENERGY      -193.606005728569

DIPOLE MOMENT
-------------

Method             : SCF
Type of density    : Electron Density
Multiplicity       :   2
Irrep              :   0
Energy             :  -193.6060057285689595 Eh
Basis              : AO
                                X                 Y                 Z
Electronic contribution:      3.261299737       0.544836866       0.484881441
Nuclear contribution   :     -4.086171346      -0.384585721      -0.471925579
                        -----------------------------------------
Total Dipole Moment    :     -0.824871608       0.160251145       0.012955861
                        -----------------------------------------
Magnitude (a.u.)       :      0.840393630
Magnitude (Debye)      :      2.136110849

Rotational constants in cm-1:             0.275090             0.118954             0.091258
Rotational constants in MHz :          8246.989337          3566.157649          2735.850922

                             ****ORCA TERMINATED NORMALLY****
TOTAL RUN TIME: 0 days 0 hours 2 minutes 16 seconds 907 msec
