                         Program Version 6.1.0  -  RELEASE   -
|  1> ! wB97X-3c
|  2> ! OPT
|  3> * xyz 0 2
|  4>  C                 -0.61880100    1.33440400   -0.21215800
|  5>  C                 -0.82827700    0.20339400    0.45527500
|  6>  H                 -0.40518200    2.26356200    0.29925400
|  7>  H                 -0.67421400    1.37294700   -1.29406000
|  8>  C                 -1.13806300   -1.12435400   -0.16095200
|  9>  H                 -2.08567700   -1.51537500    0.21754200
| 10>  H                 -1.20326800   -1.05861900   -1.24700200
| 11>  H                 -0.36868900   -1.85730300    0.09389300
| 12>  H                 -0.77224300    0.22197900    1.54008400
| 13>  O                  2.43052800   -0.26483000   -0.00532100
| 14>  H                  1.57589700    0.21078700   -0.06013200
| 15> **                         ****END OF INPUT****
 Total Charge           Charge          ....    0
 Multiplicity           Mult            ....    2
 Number of Electrons    NEL             ....   25
Dispersion correction           -0.006310674
FINAL SINGLE POINT ENERGY       -37.261531740032
Dispersion correction             ... done (  0.0 sec)
Dispersion correction           -0.006327940
FINAL SINGLE POINT ENERGY       -37.261611157404
Dispersion correction             ... done (  0.0 sec)
Dispersion correction           -0.006333031
FINAL SINGLE POINT ENERGY       -37.261621275028
Dispersion correction             ... done (  0.0 sec)
FINAL SINGLE POINT ENERGY       -37.261623776024
FINAL SINGLE POINT ENERGY       -37.261629315986
FINAL SINGLE POINT ENERGY       -37.261633005395
FINAL SINGLE POINT ENERGY       -37.261644998372
FINAL SINGLE POINT ENERGY       -37.261656852411
FINAL SINGLE POINT ENERGY       -37.261669591942
FINAL SINGLE POINT ENERGY       -37.261678281061
FINAL SINGLE POINT ENERGY       -37.261681868968
FINAL SINGLE POINT ENERGY       -37.261683877234
FINAL SINGLE POINT ENERGY       -37.261688030447
FINAL SINGLE POINT ENERGY       -37.261688899478
FINAL SINGLE POINT ENERGY       -37.261692045152
FINAL SINGLE POINT ENERGY       -37.261694526995
Dispersion correction             ... done (  0.0 sec)
Dispersion correction           -0.006316398
FINAL SINGLE POINT ENERGY       -37.261696109237
Dispersion correction             ... done (  0.0 sec)
Dispersion correction           -0.006314034
FINAL SINGLE POINT ENERGY       -37.261694612711
Dispersion correction             ... done (  0.0 sec)
                    ***********************HURRAY********************

CARTESIAN COORDINATES (ANGSTROEM)
---------------------------------
  C     -0.592280    1.304056   -0.208416
  C     -0.827688    0.183433    0.460237
  H     -0.365022    2.229909    0.303517
  H     -0.636804    1.334705   -1.291177
  C     -1.162206   -1.130411   -0.157993
  H     -2.133525   -1.480018    0.192123
  H     -1.191577   -1.064239   -1.243840
  H     -0.430478   -1.888204    0.122829
  H     -0.781535    0.206099    1.545225
  O      2.465802   -0.143902   -0.071218
  H      1.567323    0.235165   -0.024863

 Multiplicity           Mult            ....    2
 Number of Electrons    NEL             ....   25
 Basis Dimension        Dim             ....   87

ORBITAL ENERGIES
----------------
                 SPIN UP ORBITALS
  NO   OCC          E(Eh)            E(eV)
   0   1.0000      -1.123923       -30.5835
   1   1.0000      -0.948047       -25.7977
   2   1.0000      -0.837086       -22.7783
   3   1.0000      -0.696342       -18.9484
   4   1.0000      -0.603084       -16.4107
   5   1.0000      -0.585862       -15.9421
   6   1.0000      -0.551855       -15.0167
   7   1.0000      -0.539974       -14.6934
   8   1.0000      -0.522064       -14.2061
   9   1.0000      -0.494758       -13.4630
  10   1.0000      -0.469402       -12.7731
  11   1.0000      -0.453436       -12.3386
  12   1.0000      -0.382104       -10.3976
  13   0.0000       0.075823         2.0633
  14   0.0000       0.084545         2.3006
  15   0.0000       0.102443         2.7876
  16   0.0000       0.109915         2.9909
  17   0.0000       0.134532         3.6608

                 SPIN DOWN ORBITALS
  NO   OCC          E(Eh)            E(eV)
   0   1.0000      -1.051372       -28.6093
   1   1.0000      -0.947968       -25.7955
   2   1.0000      -0.837093       -22.7785
   3   1.0000      -0.696360       -18.9489
   4   1.0000      -0.603065       -16.4102
   5   1.0000      -0.561005       -15.2657
   6   1.0000      -0.551850       -15.0166
   7   1.0000      -0.537325       -14.6214
   8   1.0000      -0.494764       -13.4632
   9   1.0000      -0.469407       -12.7732
  10   1.0000      -0.425959       -11.5909
  11   1.0000      -0.381481       -10.3806
  12   0.0000      -0.057394        -1.5618
  13   0.0000       0.076161         2.0725
  14   0.0000       0.085533         2.3275
  15   0.0000       0.103306         2.8111
  16   0.0000       0.110307         3.0016

MULLIKEN ATOMIC CHARGES AND SPIN POPULATIONS
--------------------------------------------
   0 C :   -0.073988   -0.000596
   1 C :   -0.082020   -0.000926
   2 H :    0.038721   -0.000036
   3 H :    0.033802   -0.000058
   4 C :   -0.063227   -0.000124
   5 H :    0.049147    0.000074
   6 H :    0.033465    0.000016
   7 H :    0.050272   -0.000571
   8 H :    0.027245   -0.000039
   9 O :   -0.190207    1.013233
  10 H :    0.176789   -0.010973
Sum of atomic charges         :   -0.0000000

LOEWDIN ATOMIC CHARGES AND SPIN POPULATIONS
-------------------------------------------
   0 C :   -0.077734   -0.000667
   1 C :   -0.052456   -0.000990
   2 H :    0.038119   -0.000046
   3 H :    0.035476   -0.000013
   4 C :   -0.111634   -0.000047
   5 H :    0.054722    0.000025
   6 H :    0.051116    0.000021
   7 H :    0.053563   -0.000164
   8 H :    0.044873   -0.000044
   9 O :   -0.043862    0.973264
  10 H :    0.007816    0.028661

  Mayer bond orders larger than 0.100000
B(  0-C ,  1-C ) :   1.9239 B(  0-C ,  2-H ) :   0.9974 B(  0-C ,  3-H ) :   0.9977
B(  1-C ,  4-C ) :   1.0341 B(  1-C ,  8-H ) :   1.0031 B(  4-C ,  5-H ) :   0.9794
B(  4-C ,  6-H ) :   0.9894 B(  4-C ,  7-H ) :   0.9756 B(  9-O , 10-H ) :   1.0530

Dispersion correction           -0.006313092
FINAL SINGLE POINT ENERGY       -37.261697425136

DIPOLE MOMENT
-------------

Method             : SCF
Type of density    : Electron Density
Multiplicity       :   2
Irrep              :   0
Energy             :   -37.2553843334875125 Eh
Basis              : AO
                                X                 Y                 Z
Electronic contribution:      1.716633742       1.078373345       0.589816568
Nuclear contribution   :     -2.609476796      -0.983164793      -0.517686698
                        -----------------------------------------
Total Dipole Moment    :     -0.892843054       0.095208552       0.072129870
                        -----------------------------------------
Magnitude (a.u.)       :      0.900797483
Magnitude (Debye)      :      2.289645240

Rotational constants in cm-1:             0.283849             0.116443             0.090706
Rotational constants in MHz :          8509.564006          3490.874827          2719.288185

                             ****ORCA TERMINATED NORMALLY****
TOTAL RUN TIME: 0 days 0 hours 16 minutes 45 seconds 405 msec
