                         Program Version 6.1.0  -  RELEASE   -
|  1> ! wB97X-3c
|  2> ! OPT
|  3> * xyzfile 0 2 guess.xyz
|  4>
|  5>                          ****END OF INPUT****
 Total Charge           Charge          ....    0
 Multiplicity           Mult            ....    2
 Number of Electrons    NEL             ....   35
Dispersion correction           -0.014341293
FINAL SINGLE POINT ENERGY       -49.911879629170
Dispersion correction             ... done (  0.0 sec)
Dispersion correction           -0.014226073
FINAL SINGLE POINT ENERGY       -49.914112558653
Dispersion correction             ... done (  0.0 sec)
Dispersion correction           -0.014180962
FINAL SINGLE POINT ENERGY       -49.914549254939
Dispersion correction             ... done (  0.0 sec)
FINAL SINGLE POINT ENERGY       -49.914594551893
FINAL SINGLE POINT ENERGY       -49.914608577155
FINAL SINGLE POINT ENERGY       -49.914612186030
FINAL SINGLE POINT ENERGY       -49.914614684824
FINAL SINGLE POINT ENERGY       -49.914621269147
Dispersion correction             ... done (  0.0 sec)
Dispersion correction           -0.014197630
FINAL SINGLE POINT ENERGY       -49.914620498947
Dispersion correction             ... done (  0.0 sec)
Dispersion correction           -0.014196587
FINAL SINGLE POINT ENERGY       -49.914621611037
Dispersion correction             ... done (  0.0 sec)
                    ***********************HURRAY********************

CARTESIAN COORDINATES (ANGSTROEM)
---------------------------------
  C     -0.117157    1.192633   -0.171433
  C     -0.821218    0.364622    0.898234
  C     -0.936311   -1.022914    0.263089
  C      0.248836   -1.095945   -0.631314
  C      0.893187    0.235129   -0.802055
  H     -0.837908    1.496890   -0.933130
  H      0.368375    2.089228    0.208862
  H     -1.783037    0.780092    1.194257
  H     -0.205263    0.310034    1.798142
  H     -0.974381   -1.832975    0.994120
  H     -1.863088   -1.100524   -0.320314
  H      0.609168   -1.996815   -1.107748
  H      1.087970    0.481662   -1.846041
  O      2.179259    0.297047   -0.182346
  H      2.151571   -0.198164    0.637677

 Multiplicity           Mult            ....    2
 Number of Electrons    NEL             ....   35
 Basis Dimension        Dim             ....  123

ORBITAL ENERGIES
----------------
                 SPIN UP ORBITALS
  NO   OCC          E(Eh)            E(eV)
   0   1.0000      -1.144643       -31.1473
   1   1.0000      -0.983785       -26.7701
   2   1.0000      -0.852980       -23.2108
   3   1.0000      -0.844074       -22.9684
   4   1.0000      -0.707668       -19.2566
   5   1.0000      -0.703715       -19.1491
   6   1.0000      -0.631701       -17.1895
   7   1.0000      -0.608337       -16.5537
   8   1.0000      -0.566605       -15.4181
   9   1.0000      -0.535935       -14.5835
  10   1.0000      -0.521325       -14.1860
  11   1.0000      -0.486028       -13.2255
  12   1.0000      -0.470124       -12.7927
  13   1.0000      -0.453212       -12.3325
  14   1.0000      -0.446465       -12.1489
  15   1.0000      -0.434899       -11.8342
  16   1.0000      -0.382842       -10.4177
  17   1.0000      -0.302951        -8.2437
  18   0.0000       0.081174         2.2089
  19   0.0000       0.093183         2.5356
  20   0.0000       0.110907         3.0179
  21   0.0000       0.115894         3.1536
  22   0.0000       0.134917         3.6713

                 SPIN DOWN ORBITALS
  NO   OCC          E(Eh)            E(eV)
   0   1.0000      -1.139685       -31.0124
   1   1.0000      -0.975927       -26.5563
   2   1.0000      -0.848502       -23.0889
   3   1.0000      -0.830757       -22.6060
   4   1.0000      -0.705933       -19.2094
   5   1.0000      -0.689555       -18.7637
   6   1.0000      -0.624719       -16.9995
   7   1.0000      -0.602140       -16.3851
   8   1.0000      -0.562982       -15.3195
   9   1.0000      -0.527798       -14.3621
  10   1.0000      -0.509441       -13.8626
  11   1.0000      -0.483016       -13.1435
  12   1.0000      -0.464329       -12.6350
  13   1.0000      -0.451927       -12.2976
  14   1.0000      -0.441704       -12.0194
  15   1.0000      -0.428564       -11.6618
  16   1.0000      -0.378914       -10.3108
  17   0.0000       0.015906         0.4328
  18   0.0000       0.084693         2.3046
  19   0.0000       0.093844         2.5536
  20   0.0000       0.112357         3.0574
  21   0.0000       0.117250         3.1905

MULLIKEN ATOMIC CHARGES AND SPIN POPULATIONS
--------------------------------------------
   0 C :   -0.039724    0.000470
   1 C :   -0.058710    0.007980
   2 C :   -0.062160   -0.063307
   3 C :   -0.062137    0.978390
   4 C :    0.079547   -0.047786
   5 H :    0.033371    0.000993
   6 H :    0.047773   -0.000126
   7 H :    0.039953   -0.000457
   8 H :    0.025708    0.001068
   9 H :    0.047271    0.023072
  10 H :    0.046393    0.052025
  11 H :    0.032881   -0.018218
  12 H :    0.041687    0.021255
  13 O :   -0.310127    0.045648
  14 H :    0.138275   -0.001007
Sum of atomic charges         :   -0.0000000

LOEWDIN ATOMIC CHARGES AND SPIN POPULATIONS
-------------------------------------------
   0 C :   -0.070508    0.001925
   1 C :   -0.077870    0.003945
   2 C :   -0.099846    0.039291
   3 C :    0.024440    0.747204
   4 C :   -0.059733    0.032629
   5 H :    0.047094    0.000974
   6 H :    0.046816    0.001107
   7 H :    0.042461   -0.000064
   8 H :    0.039818    0.000200
   9 H :    0.047032    0.018531
  10 H :    0.050313    0.040298
  11 H :    0.015785    0.039016
  12 H :    0.053240    0.015313
  13 O :   -0.076525    0.054236
  14 H :    0.017481    0.005395

  Mayer bond orders larger than 0.100000
B(  0-C ,  1-C ) :   0.9838 B(  0-C ,  4-C ) :   0.9891 B(  0-C ,  5-H ) :   0.9920
B(  0-C ,  6-H ) :   0.9939 B(  1-C ,  2-C ) :   0.9781 B(  1-C ,  7-H ) :   1.0038
B(  1-C ,  8-H ) :   0.9960 B(  2-C ,  3-C ) :   1.0473 B(  2-C ,  9-H ) :   0.9868
B(  2-C , 10-H ) :   0.9701 B(  3-C ,  4-C ) :   1.0642 B(  3-C , 11-H ) :   1.0170
B(  4-C , 12-H ) :   1.0032 B(  4-C , 13-O ) :   0.9318 B( 13-O , 14-H ) :   1.0670

Dispersion correction           -0.014195303
FINAL SINGLE POINT ENERGY       -49.914622047048

DIPOLE MOMENT
-------------

Method             : SCF
Type of density    : Electron Density
Multiplicity       :   2
Irrep              :   0
Energy             :   -49.9004267438308773 Eh
Basis              : AO
                                X                 Y                 Z
Electronic contribution:      1.970510694      -0.594897580      -1.400382843
Nuclear contribution   :     -2.682106397       0.287006534       1.678110802
                        -----------------------------------------
Total Dipole Moment    :     -0.711595703      -0.307891046       0.277727959
                        -----------------------------------------
Magnitude (a.u.)       :      0.823588586
Magnitude (Debye)      :      2.093395822

Rotational constants in cm-1:             0.196618             0.113016             0.089315
Rotational constants in MHz :          5894.471582          3388.127640          2677.610757

                             ****ORCA TERMINATED NORMALLY****
TOTAL RUN TIME: 0 days 0 hours 24 minutes 46 seconds 26 msec
