                         Program Version 6.1.0  -  RELEASE   -
|  1> % MaxCore 10000
|  2> ! PAL8
|  3> ! REVDSD-PBEP86-D4/2021 def2-TZVPP def2-TZVPP/c
|  4> ! OPT
|  5> * xyzfile 0 2 guess.xyz
|  6>
|  7>                          ****END OF INPUT****
 Total Charge           Charge          ....    0
 Multiplicity           Mult            ....    2
 Number of Electrons    NEL             ....   47
MP2 TOTAL ENERGY:     -270.701955604 Eh
Dispersion correction           -0.008014760
FINAL SINGLE POINT ENERGY      -270.709970363842
MP2 TOTAL ENERGY:     -270.702354660 Eh
Dispersion correction           -0.007986802
FINAL SINGLE POINT ENERGY      -270.710341461615
MP2 TOTAL ENERGY:     -270.702398318 Eh
Dispersion correction           -0.007984464
FINAL SINGLE POINT ENERGY      -270.710382782004
MP2 TOTAL ENERGY:     -270.702413393 Eh
Dispersion correction           -0.007988455
FINAL SINGLE POINT ENERGY      -270.710401848524
MP2 TOTAL ENERGY:     -270.702403623 Eh
Dispersion correction           -0.007991982
FINAL SINGLE POINT ENERGY      -270.710395604983
                    ***********************HURRAY********************

CARTESIAN COORDINATES (ANGSTROEM)
---------------------------------
  C     -0.122961    1.197506   -0.180667
  C     -0.812456    0.364423    0.908117
  C     -0.943614   -1.027166    0.260305
  C      0.251535   -1.101653   -0.635974
  C      0.899218    0.235648   -0.806557
  H     -0.856215    1.481711   -0.942017
  H      0.357448    2.103462    0.188627
  H     -1.769051    0.780798    1.224910
  H     -0.172735    0.301121    1.793330
  H     -0.988542   -1.841942    0.988257
  H     -1.872848   -1.085704   -0.325471
  H      0.609254   -2.002313   -1.115030
  H      1.108911    0.482532   -1.848949
  O      2.187588    0.302842   -0.165550
  H      2.124472   -0.191265    0.656668

 Multiplicity           Mult            ....    2
 Number of Electrons    NEL             ....   47
 Basis Dimension        Dim             ....  312

ORBITAL ENERGIES
----------------
                 SPIN UP ORBITALS
  NO   OCC          E(Eh)            E(eV)
   0   1.0000     -19.994395      -544.0751
   1   1.0000     -10.861089      -295.5452
   2   1.0000     -10.822312      -294.4901
   3   1.0000     -10.815509      -294.3050
   4   1.0000     -10.812416      -294.2208
   5   1.0000     -10.805099      -294.0217
   6   1.0000      -1.227867       -33.4120
   7   1.0000      -1.020412       -27.7668
   8   1.0000      -0.875286       -23.8177
   9   1.0000      -0.865544       -23.5526
  10   1.0000      -0.711617       -19.3641
  11   1.0000      -0.705682       -19.2026
  12   1.0000      -0.623550       -16.9677
  13   1.0000      -0.595943       -16.2164
  14   1.0000      -0.553642       -15.0654
  15   1.0000      -0.529564       -14.4102
  16   1.0000      -0.510209       -13.8835
  17   1.0000      -0.473468       -12.8837
  18   1.0000      -0.452329       -12.3085
  19   1.0000      -0.434474       -11.8226
  20   1.0000      -0.430533       -11.7154
  21   1.0000      -0.420430       -11.4405
  22   1.0000      -0.372982       -10.1494
  23   1.0000      -0.294084        -8.0024
  24   0.0000       0.092062         2.5051
  25   0.0000       0.116805         3.1784
  26   0.0000       0.139029         3.7832
  27   0.0000       0.144678         3.9369
  28   0.0000       0.155046         4.2190

                 SPIN DOWN ORBITALS
  NO   OCC          E(Eh)            E(eV)
   0   1.0000     -19.991561      -543.9980
   1   1.0000     -10.863347      -295.6067
   2   1.0000     -10.817626      -294.3626
   3   1.0000     -10.812187      -294.2146
   4   1.0000     -10.805061      -294.0206
   5   1.0000     -10.802490      -293.9507
   6   1.0000      -1.219574       -33.1863
   7   1.0000      -1.007053       -27.4033
   8   1.0000      -0.868115       -23.6226
   9   1.0000      -0.844143       -22.9703
  10   1.0000      -0.709303       -19.3011
  11   1.0000      -0.684191       -18.6178
  12   1.0000      -0.614062       -16.7095
  13   1.0000      -0.586999       -15.9730
  14   1.0000      -0.549810       -14.9611
  15   1.0000      -0.518738       -14.1156
  16   1.0000      -0.492648       -13.4056
  17   1.0000      -0.469391       -12.7728
  18   1.0000      -0.445181       -12.1140
  19   1.0000      -0.429484       -11.6868
  20   1.0000      -0.426129       -11.5956
  21   1.0000      -0.413778       -11.2595
  22   1.0000      -0.368750       -10.0342
  23   0.0000       0.040100         1.0912
  24   0.0000       0.098706         2.6859
  25   0.0000       0.119541         3.2529
  26   0.0000       0.140621         3.8265
  27   0.0000       0.147469         4.0128

MULLIKEN ATOMIC CHARGES AND SPIN DENSITIES
------------------------------------------
   0 C :   -0.166548   -0.005303
   1 C :   -0.179748    0.015187
   2 C :   -0.107774   -0.094583
   3 C :   -0.249168    1.038870
   4 C :    0.193070   -0.061946
   5 H :    0.074651    0.000773
   6 H :    0.093643    0.001324
   7 H :    0.084921   -0.000278
   8 H :    0.072814   -0.000893
   9 H :    0.088746    0.026055
  10 H :    0.082823    0.060803
  11 H :    0.111545   -0.048004
  12 H :    0.079614    0.016650
  13 O :   -0.367327    0.046184
  14 H :    0.188737    0.005162
Sum of atomic charges       :    0.0000000

LOEWDIN ATOMIC CHARGES AND SPIN DENSITIES
-----------------------------------------
   0 C :   -0.012507    0.000999
   1 C :   -0.015299    0.002897
   2 C :   -0.048064    0.065592
   3 C :    0.068591    0.699270
   4 C :   -0.186688    0.062710
   5 H :    0.018508    0.000797
   6 H :    0.014075    0.001035
   7 H :    0.008754    0.000096
   8 H :    0.011305    0.000111
   9 H :    0.015618    0.015068
  10 H :    0.022850    0.034630
  11 H :   -0.022027    0.048228
  12 H :    0.016122    0.011218
  13 O :    0.258587    0.047787
  14 H :   -0.149825    0.009562

  Mayer bond orders larger than 0.100000
B(  0-C ,  1-C ) :   0.9018 B(  0-C ,  4-C ) :   0.9222 B(  0-C ,  5-H ) :   0.9618
B(  0-C ,  6-H ) :   0.9684 B(  1-C ,  2-C ) :   0.9177 B(  1-C ,  7-H ) :   0.9714
B(  1-C ,  8-H ) :   0.9761 B(  2-C ,  3-C ) :   0.9597 B(  2-C ,  9-H ) :   0.9640
B(  2-C , 10-H ) :   0.9472 B(  3-C ,  4-C ) :   0.9813 B(  3-C , 11-H ) :   0.9789
B(  4-C , 12-H ) :   0.9663 B(  4-C , 13-O ) :   0.9158 B( 13-O , 14-H ) :   0.9781

MP2 TOTAL ENERGY:     -270.702407122 Eh
Dispersion correction           -0.007993049
FINAL SINGLE POINT ENERGY      -270.710400171497

DIPOLE MOMENT
-------------

Method             : MP2
Type of density    : Electron Density
Multiplicity       :   2
Level              : Relaxed density
Irrep              :   0
Energy             :     0.0000000000000000 Eh
Basis              : AO
                                X                 Y                 Z
Electronic contribution:      3.148572353      -0.235495567      -1.082138383
Nuclear contribution   :     -3.799038973      -0.057830664       1.323325779
                        -----------------------------------------
Total Dipole Moment    :     -0.650466620      -0.293326231       0.241187396
                        -----------------------------------------
Magnitude (a.u.)       :      0.753205457
Magnitude (Debye)      :      1.914496125

Rotational constants in cm-1:             0.194245             0.112174             0.088916
Rotational constants in MHz :          5823.320218          3362.885688          2665.636393

                             ****ORCA TERMINATED NORMALLY****
TOTAL RUN TIME: 0 days 0 hours 4 minutes 18 seconds 18 msec
